+ 0.1 1 2 cbr 210 ------- 0 1.0 5.0 0 0
- 0.1 1 2 cbr 210 ------- 0 1.0 5.0 0 0
+ 0.10375 1 2 cbr 210 ------- 0 1.0 5.0 1 1
- 0.10375 1 2 cbr 210 ------- 0 1.0 5.0 1 1
+ 0.1075 1 2 cbr 210 ------- 0 1.0 5.0 2 2
- 0.1075 1 2 cbr 210 ------- 0 1.0 5.0 2 2
+ 0.11125 1 2 cbr 210 ------- 0 1.0 5.0 3 3
- 0.11125 1 2 cbr 210 ------- 0 1.0 5.0 3 3
+ 0.115 1 2 cbr 210 ------- 0 1.0 5.0 4 4
- 0.115 1 2 cbr 210 ------- 0 1.0 5.0 4 4
+ 0.11875 1 2 cbr 210 ------- 0 1.0 5.0 5 5
- 0.11875 1 2 cbr 210 ------- 0 1.0 5.0 5 5
r 0.12168 1 2 cbr 210 ------- 0 1.0 5.0 0 0
+ 0.12168 2 3 cbr 210 ------- 0 1.0 5.0 0 0
- 0.12168 2 3 cbr 210 ------- 0 1.0 5.0 0 0
+ 0.1225 1 2 cbr 210 ------- 0 1.0 5.0 6 6
- 0.1225 1 2 cbr 210 ------- 0 1.0 5.0 6 6
r 0.12543 1 2 cbr 210 ------- 0 1.0 5.0 1 1
+ 0.12543 2 3 cbr 210 ------- 0 1.0 5.0 1 1
- 0.12543 2 3 cbr 210 ------- 0 1.0 5.0 1 1
+ 0.12625 1 2 cbr 210 ------- 0 1.0 5.0 7 7
- 0.12625 1 2 cbr 210 ------- 0 1.0 5.0 7 7
r 0.12918 1 2 cbr 210 ------- 0 1.0 5.0 2 2
+ 0.12918 2 3 cbr 210 ------- 0 1.0 5.0 2 2
- 0.12918 2 3 cbr 210 ------- 0 1.0 5.0 2 2
+ 0.13 1 2 cbr 210 ------- 0 1.0 5.0 8 8
- 0.13 1 2 cbr 210 ------- 0 1.0 5.0 8 8
r 0.13293 1 2 cbr 210 ------- 0 1.0 5.0 3 3
+ 0.13293 2 3 cbr 210 ------- 0 1.0 5.0 3 3
- 0.13293 2 3 cbr 210 ------- 0 1.0 5.0 3 3
+ 0.13375 1 2 cbr 210 ------- 0 1.0 5.0 9 9
- 0.13375 1 2 cbr 210 ------- 0 1.0 5.0 9 9
r 0.13668 1 2 cbr 210 ------- 0 1.0 5.0 4 4
+ 0.13668 2 3 cbr 210 ------- 0 1.0 5.0 4 4
- 0.13668 2 3 cbr 210 ------- 0 1.0 5.0 4 4
+ 0.1375 1 2 cbr 210 ------- 0 1.0 5.0 10 10
- 0.1375 1 2 cbr 210 ------- 0 1.0 5.0 10 10
r 0.14043 1 2 cbr 210 ------- 0 1.0 5.0 5 5
+ 0.14043 2 3 cbr 210 ------- 0 1.0 5.0 5 5
- 0.14043 2 3 cbr 210 ------- 0 1.0 5.0 5 5
+ 0.14125 1 2 cbr 210 ------- 0 1.0 5.0 11 11
- 0.14125 1 2 cbr 210 ------- 0 1.0 5.0 11 11
r 0.14418 1 2 cbr 210 ------- 0 1.0 5.0 6 6
+ 0.14418 2 3 cbr 210 ------- 0 1.0 5.0 6 6
- 0.14418 2 3 cbr 210 ------- 0 1.0 5.0 6 6
+ 0.145 1 2 cbr 210 ------- 0 1.0 5.0 12 12
- 0.145 1 2 cbr 210 ------- 0 1.0 5.0 12 12
r 0.14504 2 3 cbr 210 ------- 0 1.0 5.0 0 0
+ 0.14504 3 5 cbr 210 ------- 0 1.0 5.0 0 0
- 0.14504 3 5 cbr 210 ------- 0 1.0 5.0 0 0
r 0.14793 1 2 cbr 210 ------- 0 1.0 5.0 7 7
+ 0.14793 2 3 cbr 210 ------- 0 1.0 5.0 7 7
- 0.14793 2 3 cbr 210 ------- 0 1.0 5.0 7 7
+ 0.14875 1 2 cbr 210 ------- 0 1.0 5.0 13 13
- 0.14875 1 2 cbr 210 ------- 0 1.0 5.0 13 13
r 0.14879 2 3 cbr 210 ------- 0 1.0 5.0 1 1
+ 0.14879 3 5 cbr 210 ------- 0 1.0 5.0 1 1
- 0.14879 3 5 cbr 210 ------- 0 1.0 5.0 1 1
r 0.15168 1 2 cbr 210 ------- 0 1.0 5.0 8 8
+ 0.15168 2 3 cbr 210 ------- 0 1.0 5.0 8 8
- 0.15168 2 3 cbr 210 ------- 0 1.0 5.0 8 8
+ 0.1525 1 2 cbr 210 ------- 0 1.0 5.0 14 14
- 0.1525 1 2 cbr 210 ------- 0 1.0 5.0 14 14
r 0.15254 2 3 cbr 210 ------- 0 1.0 5.0 2 2
+ 0.15254 3 5 cbr 210 ------- 0 1.0 5.0 2 2
- 0.15254 3 5 cbr 210 ------- 0 1.0 5.0 2 2
r 0.15543 1 2 cbr 210 ------- 0 1.0 5.0 9 9
+ 0.15543 2 3 cbr 210 ------- 0 1.0 5.0 9 9
- 0.15543 2 3 cbr 210 ------- 0 1.0 5.0 9 9
+ 0.15625 1 2 cbr 210 ------- 0 1.0 5.0 15 15
- 0.15625 1 2 cbr 210 ------- 0 1.0 5.0 15 15
r 0.15629 2 3 cbr 210 ------- 0 1.0 5.0 3 3
+ 0.15629 3 5 cbr 210 ------- 0 1.0 5.0 3 3
- 0.15629 3 5 cbr 210 ------- 0 1.0 5.0 3 3
r 0.15918 1 2 cbr 210 ------- 0 1.0 5.0 10 10
+ 0.15918 2 3 cbr 210 ------- 0 1.0 5.0 10 10
- 0.15918 2 3 cbr 210 ------- 0 1.0 5.0 10 10
+ 0.16 1 2 cbr 210 ------- 0 1.0 5.0 16 16
- 0.16 1 2 cbr 210 ------- 0 1.0 5.0 16 16
r 0.16004 2 3 cbr 210 ------- 0 1.0 5.0 4 4
+ 0.16004 3 5 cbr 210 ------- 0 1.0 5.0 4 4
- 0.16004 3 5 cbr 210 ------- 0 1.0 5.0 4 4
r 0.16293 1 2 cbr 210 ------- 0 1.0 5.0 11 11
+ 0.16293 2 3 cbr 210 ------- 0 1.0 5.0 11 11
- 0.16293 2 3 cbr 210 ------- 0 1.0 5.0 11 11
+ 0.16375 1 2 cbr 210 ------- 0 1.0 5.0 17 17
- 0.16375 1 2 cbr 210 ------- 0 1.0 5.0 17 17
r 0.16379 2 3 cbr 210 ------- 0 1.0 5.0 5 5
+ 0.16379 3 5 cbr 210 ------- 0 1.0 5.0 5 5
- 0.16379 3 5 cbr 210 ------- 0 1.0 5.0 5 5
r 0.16668 1 2 cbr 210 ------- 0 1.0 5.0 12 12
+ 0.16668 2 3 cbr 210 ------- 0 1.0 5.0 12 12
- 0.16668 2 3 cbr 210 ------- 0 1.0 5.0 12 12
r 0.16672 3 5 cbr 210 ------- 0 1.0 5.0 0 0
+ 0.1675 1 2 cbr 210 ------- 0 1.0 5.0 18 18
- 0.1675 1 2 cbr 210 ------- 0 1.0 5.0 18 18
r 0.16754 2 3 cbr 210 ------- 0 1.0 5.0 6 6
+ 0.16754 3 5 cbr 210 ------- 0 1.0 5.0 6 6
- 0.16754 3 5 cbr 210 ------- 0 1.0 5.0 6 6
r 0.17043 1 2 cbr 210 ------- 0 1.0 5.0 13 13
+ 0.17043 2 3 cbr 210 ------- 0 1.0 5.0 13 13
- 0.17043 2 3 cbr 210 ------- 0 1.0 5.0 13 13
r 0.17047 3 5 cbr 210 ------- 0 1.0 5.0 1 1
+ 0.17125 1 2 cbr 210 ------- 0 1.0 5.0 19 19
- 0.17125 1 2 cbr 210 ------- 0 1.0 5.0 19 19
r 0.17129 2 3 cbr 210 ------- 0 1.0 5.0 7 7
+ 0.17129 3 5 cbr 210 ------- 0 1.0 5.0 7 7
- 0.17129 3 5 cbr 210 ------- 0 1.0 5.0 7 7
r 0.17418 1 2 cbr 210 ------- 0 1.0 5.0 14 14
+ 0.17418 2 3 cbr 210 ------- 0 1.0 5.0 14 14
- 0.17418 2 3 cbr 210 ------- 0 1.0 5.0 14 14
r 0.17422 3 5 cbr 210 ------- 0 1.0 5.0 2 2
+ 0.175 1 2 cbr 210 ------- 0 1.0 5.0 20 20
- 0.175 1 2 cbr 210 ------- 0 1.0 5.0 20 20
r 0.17504 2 3 cbr 210 ------- 0 1.0 5.0 8 8
+ 0.17504 3 5 cbr 210 ------- 0 1.0 5.0 8 8
- 0.17504 3 5 cbr 210 ------- 0 1.0 5.0 8 8
r 0.17793 1 2 cbr 210 ------- 0 1.0 5.0 15 15
+ 0.17793 2 3 cbr 210 ------- 0 1.0 5.0 15 15
- 0.17793 2 3 cbr 210 ------- 0 1.0 5.0 15 15
r 0.17797 3 5 cbr 210 ------- 0 1.0 5.0 3 3
+ 0.17875 1 2 cbr 210 ------- 0 1.0 5.0 21 21
- 0.17875 1 2 cbr 210 ------- 0 1.0 5.0 21 21
r 0.17879 2 3 cbr 210 ------- 0 1.0 5.0 9 9
+ 0.17879 3 5 cbr 210 ------- 0 1.0 5.0 9 9
- 0.17879 3 5 cbr 210 ------- 0 1.0 5.0 9 9
r 0.18168 1 2 cbr 210 ------- 0 1.0 5.0 16 16
+ 0.18168 2 3 cbr 210 ------- 0 1.0 5.0 16 16
- 0.18168 2 3 cbr 210 ------- 0 1.0 5.0 16 16
r 0.18172 3 5 cbr 210 ------- 0 1.0 5.0 4 4
+ 0.1825 1 2 cbr 210 ------- 0 1.0 5.0 22 22
- 0.1825 1 2 cbr 210 ------- 0 1.0 5.0 22 22
r 0.18254 2 3 cbr 210 ------- 0 1.0 5.0 10 10
+ 0.18254 3 5 cbr 210 ------- 0 1.0 5.0 10 10
- 0.18254 3 5 cbr 210 ------- 0 1.0 5.0 10 10
r 0.18543 1 2 cbr 210 ------- 0 1.0 5.0 17 17
+ 0.18543 2 3 cbr 210 ------- 0 1.0 5.0 17 17
- 0.18543 2 3 cbr 210 ------- 0 1.0 5.0 17 17
r 0.18547 3 5 cbr 210 ------- 0 1.0 5.0 5 5
+ 0.18625 1 2 cbr 210 ------- 0 1.0 5.0 23 23
- 0.18625 1 2 cbr 210 ------- 0 1.0 5.0 23 23
r 0.18629 2 3 cbr 210 ------- 0 1.0 5.0 11 11
+ 0.18629 3 5 cbr 210 ------- 0 1.0 5.0 11 11
- 0.18629 3 5 cbr 210 ------- 0 1.0 5.0 11 11
r 0.18918 1 2 cbr 210 ------- 0 1.0 5.0 18 18
+ 0.18918 2 3 cbr 210 ------- 0 1.0 5.0 18 18
- 0.18918 2 3 cbr 210 ------- 0 1.0 5.0 18 18
r 0.18922 3 5 cbr 210 ------- 0 1.0 5.0 6 6
+ 0.19 1 2 cbr 210 ------- 0 1.0 5.0 24 24
- 0.19 1 2 cbr 210 ------- 0 1.0 5.0 24 24
r 0.19004 2 3 cbr 210 ------- 0 1.0 5.0 12 12
+ 0.19004 3 5 cbr 210 ------- 0 1.0 5.0 12 12
- 0.19004 3 5 cbr 210 ------- 0 1.0 5.0 12 12
r 0.19293 1 2 cbr 210 ------- 0 1.0 5.0 19 19
+ 0.19293 2 3 cbr 210 ------- 0 1.0 5.0 19 19
- 0.19293 2 3 cbr 210 ------- 0 1.0 5.0 19 19
r 0.19297 3 5 cbr 210 ------- 0 1.0 5.0 7 7
+ 0.19375 1 2 cbr 210 ------- 0 1.0 5.0 25 25
- 0.19375 1 2 cbr 210 ------- 0 1.0 5.0 25 25
r 0.19379 2 3 cbr 210 ------- 0 1.0 5.0 13 13
+ 0.19379 3 5 cbr 210 ------- 0 1.0 5.0 13 13
- 0.19379 3 5 cbr 210 ------- 0 1.0 5.0 13 13
r 0.19668 1 2 cbr 210 ------- 0 1.0 5.0 20 20
+ 0.19668 2 3 cbr 210 ------- 0 1.0 5.0 20 20
- 0.19668 2 3 cbr 210 ------- 0 1.0 5.0 20 20
r 0.19672 3 5 cbr 210 ------- 0 1.0 5.0 8 8
+ 0.1975 1 2 cbr 210 ------- 0 1.0 5.0 26 26
- 0.1975 1 2 cbr 210 ------- 0 1.0 5.0 26 26
r 0.19754 2 3 cbr 210 ------- 0 1.0 5.0 14 14
+ 0.19754 3 5 cbr 210 ------- 0 1.0 5.0 14 14
- 0.19754 3 5 cbr 210 ------- 0 1.0 5.0 14 14
+ 0.2 0 2 tcp 1000 ------- 0 0.0 4.0 0 27
- 0.2 0 2 tcp 1000 ------- 0 0.0 4.0 0 27
+ 0.2 0 2 tcp 1000 ------- 0 0.0 4.0 1 28
+ 0.2 0 2 tcp 1000 ------- 0 0.0 4.0 2 29
+ 0.2 0 2 tcp 1000 ------- 0 0.0 4.0 3 30
+ 0.2 0 2 tcp 1000 ------- 0 0.0 4.0 4 31
+ 0.2 0 2 tcp 1000 ------- 0 0.0 4.0 5 32
+ 0.2 0 2 tcp 1000 ------- 0 0.0 4.0 6 33
+ 0.2 0 2 tcp 1000 ------- 0 0.0 4.0 7 34
r 0.20043 1 2 cbr 210 ------- 0 1.0 5.0 21 21
+ 0.20043 2 3 cbr 210 ------- 0 1.0 5.0 21 21
- 0.20043 2 3 cbr 210 ------- 0 1.0 5.0 21 21
r 0.20047 3 5 cbr 210 ------- 0 1.0 5.0 9 9
+ 0.20125 1 2 cbr 210 ------- 0 1.0 5.0 27 35
- 0.20125 1 2 cbr 210 ------- 0 1.0 5.0 27 35
r 0.20129 2 3 cbr 210 ------- 0 1.0 5.0 15 15
+ 0.20129 3 5 cbr 210 ------- 0 1.0 5.0 15 15
- 0.20129 3 5 cbr 210 ------- 0 1.0 5.0 15 15
r 0.20418 1 2 cbr 210 ------- 0 1.0 5.0 22 22
+ 0.20418 2 3 cbr 210 ------- 0 1.0 5.0 22 22
- 0.20418 2 3 cbr 210 ------- 0 1.0 5.0 22 22
r 0.20422 3 5 cbr 210 ------- 0 1.0 5.0 10 10
+ 0.205 1 2 cbr 210 ------- 0 1.0 5.0 28 36
- 0.205 1 2 cbr 210 ------- 0 1.0 5.0 28 36
r 0.20504 2 3 cbr 210 ------- 0 1.0 5.0 16 16
+ 0.20504 3 5 cbr 210 ------- 0 1.0 5.0 16 16
- 0.20504 3 5 cbr 210 ------- 0 1.0 5.0 16 16
r 0.20793 1 2 cbr 210 ------- 0 1.0 5.0 23 23
+ 0.20793 2 3 cbr 210 ------- 0 1.0 5.0 23 23
- 0.20793 2 3 cbr 210 ------- 0 1.0 5.0 23 23
r 0.20797 3 5 cbr 210 ------- 0 1.0 5.0 11 11
- 0.208 0 2 tcp 1000 ------- 0 0.0 4.0 1 28
+ 0.20875 1 2 cbr 210 ------- 0 1.0 5.0 29 37
- 0.20875 1 2 cbr 210 ------- 0 1.0 5.0 29 37
r 0.20879 2 3 cbr 210 ------- 0 1.0 5.0 17 17
+ 0.20879 3 5 cbr 210 ------- 0 1.0 5.0 17 17
- 0.20879 3 5 cbr 210 ------- 0 1.0 5.0 17 17
r 0.21168 1 2 cbr 210 ------- 0 1.0 5.0 24 24
+ 0.21168 2 3 cbr 210 ------- 0 1.0 5.0 24 24
- 0.21168 2 3 cbr 210 ------- 0 1.0 5.0 24 24
r 0.21172 3 5 cbr 210 ------- 0 1.0 5.0 12 12
+ 0.2125 1 2 cbr 210 ------- 0 1.0 5.0 30 38
- 0.2125 1 2 cbr 210 ------- 0 1.0 5.0 30 38
r 0.21254 2 3 cbr 210 ------- 0 1.0 5.0 18 18
+ 0.21254 3 5 cbr 210 ------- 0 1.0 5.0 18 18
- 0.21254 3 5 cbr 210 ------- 0 1.0 5.0 18 18
r 0.21543 1 2 cbr 210 ------- 0 1.0 5.0 25 25
+ 0.21543 2 3 cbr 210 ------- 0 1.0 5.0 25 25
- 0.21543 2 3 cbr 210 ------- 0 1.0 5.0 25 25
r 0.21547 3 5 cbr 210 ------- 0 1.0 5.0 13 13
- 0.216 0 2 tcp 1000 ------- 0 0.0 4.0 2 29
+ 0.21625 1 2 cbr 210 ------- 0 1.0 5.0 31 39
- 0.21625 1 2 cbr 210 ------- 0 1.0 5.0 31 39
r 0.21629 2 3 cbr 210 ------- 0 1.0 5.0 19 19
+ 0.21629 3 5 cbr 210 ------- 0 1.0 5.0 19 19
- 0.21629 3 5 cbr 210 ------- 0 1.0 5.0 19 19
r 0.21918 1 2 cbr 210 ------- 0 1.0 5.0 26 26
+ 0.21918 2 3 cbr 210 ------- 0 1.0 5.0 26 26
- 0.21918 2 3 cbr 210 ------- 0 1.0 5.0 26 26
r 0.21922 3 5 cbr 210 ------- 0 1.0 5.0 14 14
+ 0.22 1 2 cbr 210 ------- 0 1.0 5.0 32 40
- 0.22 1 2 cbr 210 ------- 0 1.0 5.0 32 40
r 0.22004 2 3 cbr 210 ------- 0 1.0 5.0 20 20
+ 0.22004 3 5 cbr 210 ------- 0 1.0 5.0 20 20
- 0.22004 3 5 cbr 210 ------- 0 1.0 5.0 20 20
r 0.22293 1 2 cbr 210 ------- 0 1.0 5.0 27 35
+ 0.22293 2 3 cbr 210 ------- 0 1.0 5.0 27 35
- 0.22293 2 3 cbr 210 ------- 0 1.0 5.0 27 35
r 0.22297 3 5 cbr 210 ------- 0 1.0 5.0 15 15
+ 0.22375 1 2 cbr 210 ------- 0 1.0 5.0 33 41
- 0.22375 1 2 cbr 210 ------- 0 1.0 5.0 33 41
r 0.22379 2 3 cbr 210 ------- 0 1.0 5.0 21 21
+ 0.22379 3 5 cbr 210 ------- 0 1.0 5.0 21 21
- 0.22379 3 5 cbr 210 ------- 0 1.0 5.0 21 21
- 0.224 0 2 tcp 1000 ------- 0 0.0 4.0 3 30
r 0.22668 1 2 cbr 210 ------- 0 1.0 5.0 28 36
+ 0.22668 2 3 cbr 210 ------- 0 1.0 5.0 28 36
- 0.22668 2 3 cbr 210 ------- 0 1.0 5.0 28 36
r 0.22672 3 5 cbr 210 ------- 0 1.0 5.0 16 16
+ 0.2275 1 2 cbr 210 ------- 0 1.0 5.0 34 42
- 0.2275 1 2 cbr 210 ------- 0 1.0 5.0 34 42
r 0.22754 2 3 cbr 210 ------- 0 1.0 5.0 22 22
+ 0.22754 3 5 cbr 210 ------- 0 1.0 5.0 22 22
- 0.22754 3 5 cbr 210 ------- 0 1.0 5.0 22 22
r 0.228 0 2 tcp 1000 ------- 0 0.0 4.0 0 27
+ 0.228 2 3 tcp 1000 ------- 0 0.0 4.0 0 27
- 0.23004 2 3 tcp 1000 ------- 0 0.0 4.0 0 27
r 0.23043 1 2 cbr 210 ------- 0 1.0 5.0 29 37
+ 0.23043 2 3 cbr 210 ------- 0 1.0 5.0 29 37
r 0.23047 3 5 cbr 210 ------- 0 1.0 5.0 17 17
+ 0.23125 1 2 cbr 210 ------- 0 1.0 5.0 35 43
- 0.23125 1 2 cbr 210 ------- 0 1.0 5.0 35 43
r 0.23129 2 3 cbr 210 ------- 0 1.0 5.0 23 23
+ 0.23129 3 5 cbr 210 ------- 0 1.0 5.0 23 23
- 0.23129 3 5 cbr 210 ------- 0 1.0 5.0 23 23
- 0.232 0 2 tcp 1000 ------- 0 0.0 4.0 4 31
r 0.23418 1 2 cbr 210 ------- 0 1.0 5.0 30 38
+ 0.23418 2 3 cbr 210 ------- 0 1.0 5.0 30 38
r 0.23422 3 5 cbr 210 ------- 0 1.0 5.0 18 18
+ 0.235 1 2 cbr 210 ------- 0 1.0 5.0 36 44
- 0.235 1 2 cbr 210 ------- 0 1.0 5.0 36 44
r 0.23504 2 3 cbr 210 ------- 0 1.0 5.0 24 24
+ 0.23504 3 5 cbr 210 ------- 0 1.0 5.0 24 24
- 0.23504 3 5 cbr 210 ------- 0 1.0 5.0 24 24
r 0.236 0 2 tcp 1000 ------- 0 0.0 4.0 1 28
+ 0.236 2 3 tcp 1000 ------- 0 0.0 4.0 1 28
r 0.23793 1 2 cbr 210 ------- 0 1.0 5.0 31 39
+ 0.23793 2 3 cbr 210 ------- 0 1.0 5.0 31 39
r 0.23797 3 5 cbr 210 ------- 0 1.0 5.0 19 19
+ 0.23875 1 2 cbr 210 ------- 0 1.0 5.0 37 45
- 0.23875 1 2 cbr 210 ------- 0 1.0 5.0 37 45
r 0.23879 2 3 cbr 210 ------- 0 1.0 5.0 25 25
+ 0.23879 3 5 cbr 210 ------- 0 1.0 5.0 25 25
- 0.23879 3 5 cbr 210 ------- 0 1.0 5.0 25 25
- 0.24 0 2 tcp 1000 ------- 0 0.0 4.0 5 32
r 0.24168 1 2 cbr 210 ------- 0 1.0 5.0 32 40
+ 0.24168 2 3 cbr 210 ------- 0 1.0 5.0 32 40
r 0.24172 3 5 cbr 210 ------- 0 1.0 5.0 20 20
+ 0.2425 1 2 cbr 210 ------- 0 1.0 5.0 38 46
- 0.2425 1 2 cbr 210 ------- 0 1.0 5.0 38 46
r 0.24254 2 3 cbr 210 ------- 0 1.0 5.0 26 26
+ 0.24254 3 5 cbr 210 ------- 0 1.0 5.0 26 26
- 0.24254 3 5 cbr 210 ------- 0 1.0 5.0 26 26
r 0.244 0 2 tcp 1000 ------- 0 0.0 4.0 2 29
+ 0.244 2 3 tcp 1000 ------- 0 0.0 4.0 2 29
r 0.24543 1 2 cbr 210 ------- 0 1.0 5.0 33 41
+ 0.24543 2 3 cbr 210 ------- 0 1.0 5.0 33 41
r 0.24547 3 5 cbr 210 ------- 0 1.0 5.0 21 21
- 0.24604 2 3 cbr 210 ------- 0 1.0 5.0 29 37
+ 0.24625 1 2 cbr 210 ------- 0 1.0 5.0 39 47
- 0.24625 1 2 cbr 210 ------- 0 1.0 5.0 39 47
r 0.24629 2 3 cbr 210 ------- 0 1.0 5.0 27 35
+ 0.24629 3 5 cbr 210 ------- 0 1.0 5.0 27 35
- 0.24629 3 5 cbr 210 ------- 0 1.0 5.0 27 35
- 0.248 0 2 tcp 1000 ------- 0 0.0 4.0 6 33
r 0.24918 1 2 cbr 210 ------- 0 1.0 5.0 34 42
+ 0.24918 2 3 cbr 210 ------- 0 1.0 5.0 34 42
r 0.24922 3 5 cbr 210 ------- 0 1.0 5.0 22 22
- 0.2494 2 3 cbr 210 ------- 0 1.0 5.0 30 38
+ 0.25 1 2 cbr 210 ------- 0 1.0 5.0 40 48
- 0.25 1 2 cbr 210 ------- 0 1.0 5.0 40 48
r 0.25004 2 3 cbr 210 ------- 0 1.0 5.0 28 36
+ 0.25004 3 5 cbr 210 ------- 0 1.0 5.0 28 36
- 0.25004 3 5 cbr 210 ------- 0 1.0 5.0 28 36
r 0.252 0 2 tcp 1000 ------- 0 0.0 4.0 3 30
+ 0.252 2 3 tcp 1000 ------- 0 0.0 4.0 3 30
- 0.25276 2 3 tcp 1000 ------- 0 0.0 4.0 1 28
r 0.25293 1 2 cbr 210 ------- 0 1.0 5.0 35 43
+ 0.25293 2 3 cbr 210 ------- 0 1.0 5.0 35 43
r 0.25297 3 5 cbr 210 ------- 0 1.0 5.0 23 23
+ 0.25375 1 2 cbr 210 ------- 0 1.0 5.0 41 49
- 0.25375 1 2 cbr 210 ------- 0 1.0 5.0 41 49
- 0.256 0 2 tcp 1000 ------- 0 0.0 4.0 7 34
r 0.25668 1 2 cbr 210 ------- 0 1.0 5.0 36 44
+ 0.25668 2 3 cbr 210 ------- 0 1.0 5.0 36 44
r 0.25672 3 5 cbr 210 ------- 0 1.0 5.0 24 24
+ 0.2575 1 2 cbr 210 ------- 0 1.0 5.0 42 50
- 0.2575 1 2 cbr 210 ------- 0 1.0 5.0 42 50
r 0.26 0 2 tcp 1000 ------- 0 0.0 4.0 4 31
+ 0.26 2 3 tcp 1000 ------- 0 0.0 4.0 4 31
r 0.26043 1 2 cbr 210 ------- 0 1.0 5.0 37 45
+ 0.26043 2 3 cbr 210 ------- 0 1.0 5.0 37 45
d 0.26043 2 3 cbr 210 ------- 0 1.0 5.0 37 45
r 0.26047 3 5 cbr 210 ------- 0 1.0 5.0 25 25
+ 0.26125 1 2 cbr 210 ------- 0 1.0 5.0 43 51
- 0.26125 1 2 cbr 210 ------- 0 1.0 5.0 43 51
r 0.26418 1 2 cbr 210 ------- 0 1.0 5.0 38 46
+ 0.26418 2 3 cbr 210 ------- 0 1.0 5.0 38 46
d 0.26418 2 3 cbr 210 ------- 0 1.0 5.0 38 46
r 0.26422 3 5 cbr 210 ------- 0 1.0 5.0 26 26
+ 0.265 1 2 cbr 210 ------- 0 1.0 5.0 44 52
- 0.265 1 2 cbr 210 ------- 0 1.0 5.0 44 52
r 0.26604 2 3 tcp 1000 ------- 0 0.0 4.0 0 27
+ 0.26604 3 4 tcp 1000 ------- 0 0.0 4.0 0 27
- 0.26604 3 4 tcp 1000 ------- 0 0.0 4.0 0 27
r 0.26793 1 2 cbr 210 ------- 0 1.0 5.0 39 47
+ 0.26793 2 3 cbr 210 ------- 0 1.0 5.0 39 47
d 0.26793 2 3 cbr 210 ------- 0 1.0 5.0 39 47
r 0.26797 3 5 cbr 210 ------- 0 1.0 5.0 27 35
r 0.268 0 2 tcp 1000 ------- 0 0.0 4.0 5 32
+ 0.268 2 3 tcp 1000 ------- 0 0.0 4.0 5 32
d 0.268 2 3 tcp 1000 ------- 0 0.0 4.0 5 32
+ 0.26875 1 2 cbr 210 ------- 0 1.0 5.0 45 53
- 0.26875 1 2 cbr 210 ------- 0 1.0 5.0 45 53
- 0.26876 2 3 cbr 210 ------- 0 1.0 5.0 31 39
r 0.2694 2 3 cbr 210 ------- 0 1.0 5.0 29 37
+ 0.2694 3 5 cbr 210 ------- 0 1.0 5.0 29 37
- 0.2694 3 5 cbr 210 ------- 0 1.0 5.0 29 37
r 0.27168 1 2 cbr 210 ------- 0 1.0 5.0 40 48
+ 0.27168 2 3 cbr 210 ------- 0 1.0 5.0 40 48
r 0.27172 3 5 cbr 210 ------- 0 1.0 5.0 28 36
- 0.27212 2 3 cbr 210 ------- 0 1.0 5.0 32 40
+ 0.2725 1 2 cbr 210 ------- 0 1.0 5.0 46 54
- 0.2725 1 2 cbr 210 ------- 0 1.0 5.0 46 54
r 0.27276 2 3 cbr 210 ------- 0 1.0 5.0 30 38
+ 0.27276 3 5 cbr 210 ------- 0 1.0 5.0 30 38
- 0.27276 3 5 cbr 210 ------- 0 1.0 5.0 30 38
r 0.27543 1 2 cbr 210 ------- 0 1.0 5.0 41 49
+ 0.27543 2 3 cbr 210 ------- 0 1.0 5.0 41 49
- 0.27548 2 3 tcp 1000 ------- 0 0.0 4.0 2 29
r 0.276 0 2 tcp 1000 ------- 0 0.0 4.0 6 33
+ 0.276 2 3 tcp 1000 ------- 0 0.0 4.0 6 33
+ 0.27625 1 2 cbr 210 ------- 0 1.0 5.0 47 55
- 0.27625 1 2 cbr 210 ------- 0 1.0 5.0 47 55
r 0.27918 1 2 cbr 210 ------- 0 1.0 5.0 42 50
+ 0.27918 2 3 cbr 210 ------- 0 1.0 5.0 42 50
d 0.27918 2 3 cbr 210 ------- 0 1.0 5.0 42 50
+ 0.28 1 2 cbr 210 ------- 0 1.0 5.0 48 56
- 0.28 1 2 cbr 210 ------- 0 1.0 5.0 48 56
r 0.28293 1 2 cbr 210 ------- 0 1.0 5.0 43 51
+ 0.28293 2 3 cbr 210 ------- 0 1.0 5.0 43 51
d 0.28293 2 3 cbr 210 ------- 0 1.0 5.0 43 51
+ 0.28375 1 2 cbr 210 ------- 0 1.0 5.0 49 57
- 0.28375 1 2 cbr 210 ------- 0 1.0 5.0 49 57
r 0.284 0 2 tcp 1000 ------- 0 0.0 4.0 7 34
+ 0.284 2 3 tcp 1000 ------- 0 0.0 4.0 7 34
d 0.284 2 3 tcp 1000 ------- 0 0.0 4.0 7 34
r 0.28668 1 2 cbr 210 ------- 0 1.0 5.0 44 52
+ 0.28668 2 3 cbr 210 ------- 0 1.0 5.0 44 52
d 0.28668 2 3 cbr 210 ------- 0 1.0 5.0 44 52
+ 0.2875 1 2 cbr 210 ------- 0 1.0 5.0 50 58
- 0.2875 1 2 cbr 210 ------- 0 1.0 5.0 50 58
r 0.28876 2 3 tcp 1000 ------- 0 0.0 4.0 1 28
+ 0.28876 3 4 tcp 1000 ------- 0 0.0 4.0 1 28
- 0.28876 3 4 tcp 1000 ------- 0 0.0 4.0 1 28
r 0.29043 1 2 cbr 210 ------- 0 1.0 5.0 45 53
+ 0.29043 2 3 cbr 210 ------- 0 1.0 5.0 45 53
d 0.29043 2 3 cbr 210 ------- 0 1.0 5.0 45 53
r 0.29108 3 5 cbr 210 ------- 0 1.0 5.0 29 37
+ 0.29125 1 2 cbr 210 ------- 0 1.0 5.0 51 59
- 0.29125 1 2 cbr 210 ------- 0 1.0 5.0 51 59
- 0.29148 2 3 cbr 210 ------- 0 1.0 5.0 33 41
r 0.29212 2 3 cbr 210 ------- 0 1.0 5.0 31 39
+ 0.29212 3 5 cbr 210 ------- 0 1.0 5.0 31 39
- 0.29212 3 5 cbr 210 ------- 0 1.0 5.0 31 39
r 0.29404 3 4 tcp 1000 ------- 0 0.0 4.0 0 27
+ 0.29404 4 3 ack 40 ------- 0 4.0 0.0 0 60
- 0.29404 4 3 ack 40 ------- 0 4.0 0.0 0 60
r 0.29418 1 2 cbr 210 ------- 0 1.0 5.0 46 54
+ 0.29418 2 3 cbr 210 ------- 0 1.0 5.0 46 54
r 0.29444 3 5 cbr 210 ------- 0 1.0 5.0 30 38
- 0.29484 2 3 cbr 210 ------- 0 1.0 5.0 34 42
+ 0.295 1 2 cbr 210 ------- 0 1.0 5.0 52 61
- 0.295 1 2 cbr 210 ------- 0 1.0 5.0 52 61
r 0.29548 2 3 cbr 210 ------- 0 1.0 5.0 32 40
+ 0.29548 3 5 cbr 210 ------- 0 1.0 5.0 32 40
- 0.29548 3 5 cbr 210 ------- 0 1.0 5.0 32 40
r 0.29793 1 2 cbr 210 ------- 0 1.0 5.0 47 55
+ 0.29793 2 3 cbr 210 ------- 0 1.0 5.0 47 55
- 0.2982 2 3 tcp 1000 ------- 0 0.0 4.0 3 30
+ 0.29875 1 2 cbr 210 ------- 0 1.0 5.0 53 62
- 0.29875 1 2 cbr 210 ------- 0 1.0 5.0 53 62
r 0.30168 1 2 cbr 210 ------- 0 1.0 5.0 48 56
+ 0.30168 2 3 cbr 210 ------- 0 1.0 5.0 48 56
+ 0.3025 1 2 cbr 210 ------- 0 1.0 5.0 54 63
- 0.3025 1 2 cbr 210 ------- 0 1.0 5.0 54 63
r 0.30543 1 2 cbr 210 ------- 0 1.0 5.0 49 57
+ 0.30543 2 3 cbr 210 ------- 0 1.0 5.0 49 57
d 0.30543 2 3 cbr 210 ------- 0 1.0 5.0 49 57
+ 0.30625 1 2 cbr 210 ------- 0 1.0 5.0 55 64
- 0.30625 1 2 cbr 210 ------- 0 1.0 5.0 55 64
r 0.30918 1 2 cbr 210 ------- 0 1.0 5.0 50 58
+ 0.30918 2 3 cbr 210 ------- 0 1.0 5.0 50 58
d 0.30918 2 3 cbr 210 ------- 0 1.0 5.0 50 58
+ 0.31 1 2 cbr 210 ------- 0 1.0 5.0 56 65
- 0.31 1 2 cbr 210 ------- 0 1.0 5.0 56 65
r 0.31148 2 3 tcp 1000 ------- 0 0.0 4.0 2 29
+ 0.31148 3 4 tcp 1000 ------- 0 0.0 4.0 2 29
- 0.31148 3 4 tcp 1000 ------- 0 0.0 4.0 2 29
r 0.31293 1 2 cbr 210 ------- 0 1.0 5.0 51 59
+ 0.31293 2 3 cbr 210 ------- 0 1.0 5.0 51 59
d 0.31293 2 3 cbr 210 ------- 0 1.0 5.0 51 59
+ 0.31375 1 2 cbr 210 ------- 0 1.0 5.0 57 66
- 0.31375 1 2 cbr 210 ------- 0 1.0 5.0 57 66
r 0.3138 3 5 cbr 210 ------- 0 1.0 5.0 31 39
- 0.3142 2 3 cbr 210 ------- 0 1.0 5.0 35 43
r 0.31436 4 3 ack 40 ------- 0 4.0 0.0 0 60
+ 0.31436 3 2 ack 40 ------- 0 4.0 0.0 0 60
- 0.31436 3 2 ack 40 ------- 0 4.0 0.0 0 60
r 0.31484 2 3 cbr 210 ------- 0 1.0 5.0 33 41
+ 0.31484 3 5 cbr 210 ------- 0 1.0 5.0 33 41
- 0.31484 3 5 cbr 210 ------- 0 1.0 5.0 33 41
r 0.31668 1 2 cbr 210 ------- 0 1.0 5.0 52 61
+ 0.31668 2 3 cbr 210 ------- 0 1.0 5.0 52 61
r 0.31676 3 4 tcp 1000 ------- 0 0.0 4.0 1 28
+ 0.31676 4 3 ack 40 ------- 0 4.0 0.0 1 67
- 0.31676 4 3 ack 40 ------- 0 4.0 0.0 1 67
r 0.31716 3 5 cbr 210 ------- 0 1.0 5.0 32 40
+ 0.3175 1 2 cbr 210 ------- 0 1.0 5.0 58 68
- 0.3175 1 2 cbr 210 ------- 0 1.0 5.0 58 68
- 0.31756 2 3 cbr 210 ------- 0 1.0 5.0 36 44
r 0.3182 2 3 cbr 210 ------- 0 1.0 5.0 34 42
+ 0.3182 3 5 cbr 210 ------- 0 1.0 5.0 34 42
- 0.3182 3 5 cbr 210 ------- 0 1.0 5.0 34 42
r 0.32043 1 2 cbr 210 ------- 0 1.0 5.0 53 62
+ 0.32043 2 3 cbr 210 ------- 0 1.0 5.0 53 62
- 0.32092 2 3 tcp 1000 ------- 0 0.0 4.0 4 31
+ 0.32125 1 2 cbr 210 ------- 0 1.0 5.0 59 69
- 0.32125 1 2 cbr 210 ------- 0 1.0 5.0 59 69
r 0.32418 1 2 cbr 210 ------- 0 1.0 5.0 54 63
+ 0.32418 2 3 cbr 210 ------- 0 1.0 5.0 54 63
+ 0.325 1 2 cbr 210 ------- 0 1.0 5.0 60 70
- 0.325 1 2 cbr 210 ------- 0 1.0 5.0 60 70
r 0.32793 1 2 cbr 210 ------- 0 1.0 5.0 55 64
+ 0.32793 2 3 cbr 210 ------- 0 1.0 5.0 55 64
d 0.32793 2 3 cbr 210 ------- 0 1.0 5.0 55 64
+ 0.32875 1 2 cbr 210 ------- 0 1.0 5.0 61 71
- 0.32875 1 2 cbr 210 ------- 0 1.0 5.0 61 71
r 0.33168 1 2 cbr 210 ------- 0 1.0 5.0 56 65
+ 0.33168 2 3 cbr 210 ------- 0 1.0 5.0 56 65
d 0.33168 2 3 cbr 210 ------- 0 1.0 5.0 56 65
+ 0.3325 1 2 cbr 210 ------- 0 1.0 5.0 62 72
- 0.3325 1 2 cbr 210 ------- 0 1.0 5.0 62 72
r 0.3342 2 3 tcp 1000 ------- 0 0.0 4.0 3 30
+ 0.3342 3 4 tcp 1000 ------- 0 0.0 4.0 3 30
- 0.3342 3 4 tcp 1000 ------- 0 0.0 4.0 3 30
r 0.335 3 2 ack 40 ------- 0 4.0 0.0 0 60
+ 0.335 2 0 ack 40 ------- 0 4.0 0.0 0 60
- 0.335 2 0 ack 40 ------- 0 4.0 0.0 0 60
r 0.33543 1 2 cbr 210 ------- 0 1.0 5.0 57 66
+ 0.33543 2 3 cbr 210 ------- 0 1.0 5.0 57 66
d 0.33543 2 3 cbr 210 ------- 0 1.0 5.0 57 66
+ 0.33625 1 2 cbr 210 ------- 0 1.0 5.0 63 73
- 0.33625 1 2 cbr 210 ------- 0 1.0 5.0 63 73
r 0.33652 3 5 cbr 210 ------- 0 1.0 5.0 33 41
- 0.33692 2 3 cbr 210 ------- 0 1.0 5.0 40 48
r 0.33708 4 3 ack 40 ------- 0 4.0 0.0 1 67
+ 0.33708 3 2 ack 40 ------- 0 4.0 0.0 1 67
- 0.33708 3 2 ack 40 ------- 0 4.0 0.0 1 67
r 0.33756 2 3 cbr 210 ------- 0 1.0 5.0 35 43
+ 0.33756 3 5 cbr 210 ------- 0 1.0 5.0 35 43
- 0.33756 3 5 cbr 210 ------- 0 1.0 5.0 35 43
r 0.33918 1 2 cbr 210 ------- 0 1.0 5.0 58 68
+ 0.33918 2 3 cbr 210 ------- 0 1.0 5.0 58 68
r 0.33948 3 4 tcp 1000 ------- 0 0.0 4.0 2 29
+ 0.33948 4 3 ack 40 ------- 0 4.0 0.0 2 74
- 0.33948 4 3 ack 40 ------- 0 4.0 0.0 2 74
r 0.33988 3 5 cbr 210 ------- 0 1.0 5.0 34 42
+ 0.34 1 2 cbr 210 ------- 0 1.0 5.0 64 75
- 0.34 1 2 cbr 210 ------- 0 1.0 5.0 64 75
- 0.34028 2 3 cbr 210 ------- 0 1.0 5.0 41 49
r 0.34092 2 3 cbr 210 ------- 0 1.0 5.0 36 44
+ 0.34092 3 5 cbr 210 ------- 0 1.0 5.0 36 44
- 0.34092 3 5 cbr 210 ------- 0 1.0 5.0 36 44
r 0.34293 1 2 cbr 210 ------- 0 1.0 5.0 59 69
+ 0.34293 2 3 cbr 210 ------- 0 1.0 5.0 59 69
- 0.34364 2 3 tcp 1000 ------- 0 0.0 4.0 6 33
+ 0.34375 1 2 cbr 210 ------- 0 1.0 5.0 65 76
- 0.34375 1 2 cbr 210 ------- 0 1.0 5.0 65 76
r 0.34668 1 2 cbr 210 ------- 0 1.0 5.0 60 70
+ 0.34668 2 3 cbr 210 ------- 0 1.0 5.0 60 70
+ 0.3475 1 2 cbr 210 ------- 0 1.0 5.0 66 77
- 0.3475 1 2 cbr 210 ------- 0 1.0 5.0 66 77
r 0.35043 1 2 cbr 210 ------- 0 1.0 5.0 61 71
+ 0.35043 2 3 cbr 210 ------- 0 1.0 5.0 61 71
d 0.35043 2 3 cbr 210 ------- 0 1.0 5.0 61 71
+ 0.35125 1 2 cbr 210 ------- 0 1.0 5.0 67 78
- 0.35125 1 2 cbr 210 ------- 0 1.0 5.0 67 78
r 0.35418 1 2 cbr 210 ------- 0 1.0 5.0 62 72
+ 0.35418 2 3 cbr 210 ------- 0 1.0 5.0 62 72
d 0.35418 2 3 cbr 210 ------- 0 1.0 5.0 62 72
+ 0.355 1 2 cbr 210 ------- 0 1.0 5.0 68 79
- 0.355 1 2 cbr 210 ------- 0 1.0 5.0 68 79
r 0.35532 2 0 ack 40 ------- 0 4.0 0.0 0 60
+ 0.35532 0 2 tcp 1000 ------- 0 0.0 4.0 8 80
- 0.35532 0 2 tcp 1000 ------- 0 0.0 4.0 8 80
r 0.35692 2 3 tcp 1000 ------- 0 0.0 4.0 4 31
+ 0.35692 3 4 tcp 1000 ------- 0 0.0 4.0 4 31
- 0.35692 3 4 tcp 1000 ------- 0 0.0 4.0 4 31
r 0.35772 3 2 ack 40 ------- 0 4.0 0.0 1 67
+ 0.35772 2 0 ack 40 ------- 0 4.0 0.0 1 67
- 0.35772 2 0 ack 40 ------- 0 4.0 0.0 1 67
r 0.35793 1 2 cbr 210 ------- 0 1.0 5.0 63 73
+ 0.35793 2 3 cbr 210 ------- 0 1.0 5.0 63 73
d 0.35793 2 3 cbr 210 ------- 0 1.0 5.0 63 73
+ 0.35875 1 2 cbr 210 ------- 0 1.0 5.0 69 81
- 0.35875 1 2 cbr 210 ------- 0 1.0 5.0 69 81
r 0.35924 3 5 cbr 210 ------- 0 1.0 5.0 35 43
- 0.35964 2 3 cbr 210 ------- 0 1.0 5.0 46 54
r 0.3598 4 3 ack 40 ------- 0 4.0 0.0 2 74
+ 0.3598 3 2 ack 40 ------- 0 4.0 0.0 2 74
- 0.3598 3 2 ack 40 ------- 0 4.0 0.0 2 74
r 0.36028 2 3 cbr 210 ------- 0 1.0 5.0 40 48
+ 0.36028 3 5 cbr 210 ------- 0 1.0 5.0 40 48
- 0.36028 3 5 cbr 210 ------- 0 1.0 5.0 40 48
r 0.36168 1 2 cbr 210 ------- 0 1.0 5.0 64 75
+ 0.36168 2 3 cbr 210 ------- 0 1.0 5.0 64 75
r 0.3622 3 4 tcp 1000 ------- 0 0.0 4.0 3 30
+ 0.3622 4 3 ack 40 ------- 0 4.0 0.0 3 82
- 0.3622 4 3 ack 40 ------- 0 4.0 0.0 3 82
+ 0.3625 1 2 cbr 210 ------- 0 1.0 5.0 70 83
- 0.3625 1 2 cbr 210 ------- 0 1.0 5.0 70 83
r 0.3626 3 5 cbr 210 ------- 0 1.0 5.0 36 44
- 0.363 2 3 cbr 210 ------- 0 1.0 5.0 47 55
r 0.36364 2 3 cbr 210 ------- 0 1.0 5.0 41 49
+ 0.36364 3 5 cbr 210 ------- 0 1.0 5.0 41 49
- 0.36364 3 5 cbr 210 ------- 0 1.0 5.0 41 49
r 0.36543 1 2 cbr 210 ------- 0 1.0 5.0 65 76
+ 0.36543 2 3 cbr 210 ------- 0 1.0 5.0 65 76
+ 0.36625 1 2 cbr 210 ------- 0 1.0 5.0 71 84
- 0.36625 1 2 cbr 210 ------- 0 1.0 5.0 71 84
- 0.36636 2 3 cbr 210 ------- 0 1.0 5.0 48 56
r 0.36918 1 2 cbr 210 ------- 0 1.0 5.0 66 77
+ 0.36918 2 3 cbr 210 ------- 0 1.0 5.0 66 77
- 0.36972 2 3 cbr 210 ------- 0 1.0 5.0 52 61
+ 0.37 1 2 cbr 210 ------- 0 1.0 5.0 72 85
- 0.37 1 2 cbr 210 ------- 0 1.0 5.0 72 85
r 0.37293 1 2 cbr 210 ------- 0 1.0 5.0 67 78
+ 0.37293 2 3 cbr 210 ------- 0 1.0 5.0 67 78
- 0.37308 2 3 cbr 210 ------- 0 1.0 5.0 53 62
+ 0.37375 1 2 cbr 210 ------- 0 1.0 5.0 73 86
- 0.37375 1 2 cbr 210 ------- 0 1.0 5.0 73 86
- 0.37644 2 3 cbr 210 ------- 0 1.0 5.0 54 63
r 0.37668 1 2 cbr 210 ------- 0 1.0 5.0 68 79
+ 0.37668 2 3 cbr 210 ------- 0 1.0 5.0 68 79
+ 0.3775 1 2 cbr 210 ------- 0 1.0 5.0 74 87
- 0.3775 1 2 cbr 210 ------- 0 1.0 5.0 74 87
r 0.37804 2 0 ack 40 ------- 0 4.0 0.0 1 67
+ 0.37804 0 2 tcp 1000 ------- 0 0.0 4.0 9 88
- 0.37804 0 2 tcp 1000 ------- 0 0.0 4.0 9 88
r 0.37964 2 3 tcp 1000 ------- 0 0.0 4.0 6 33
+ 0.37964 3 4 tcp 1000 ------- 0 0.0 4.0 6 33
- 0.37964 3 4 tcp 1000 ------- 0 0.0 4.0 6 33
- 0.3798 2 3 cbr 210 ------- 0 1.0 5.0 58 68
r 0.38043 1 2 cbr 210 ------- 0 1.0 5.0 69 81
+ 0.38043 2 3 cbr 210 ------- 0 1.0 5.0 69 81
r 0.38044 3 2 ack 40 ------- 0 4.0 0.0 2 74
+ 0.38044 2 0 ack 40 ------- 0 4.0 0.0 2 74
- 0.38044 2 0 ack 40 ------- 0 4.0 0.0 2 74
+ 0.38125 1 2 cbr 210 ------- 0 1.0 5.0 75 89
- 0.38125 1 2 cbr 210 ------- 0 1.0 5.0 75 89
r 0.38196 3 5 cbr 210 ------- 0 1.0 5.0 40 48
r 0.38252 4 3 ack 40 ------- 0 4.0 0.0 3 82
+ 0.38252 3 2 ack 40 ------- 0 4.0 0.0 3 82
- 0.38252 3 2 ack 40 ------- 0 4.0 0.0 3 82
r 0.383 2 3 cbr 210 ------- 0 1.0 5.0 46 54
+ 0.383 3 5 cbr 210 ------- 0 1.0 5.0 46 54
- 0.383 3 5 cbr 210 ------- 0 1.0 5.0 46 54
- 0.38316 2 3 cbr 210 ------- 0 1.0 5.0 59 69
r 0.38332 0 2 tcp 1000 ------- 0 0.0 4.0 8 80
+ 0.38332 2 3 tcp 1000 ------- 0 0.0 4.0 8 80
r 0.38418 1 2 cbr 210 ------- 0 1.0 5.0 70 83
+ 0.38418 2 3 cbr 210 ------- 0 1.0 5.0 70 83
r 0.38492 3 4 tcp 1000 ------- 0 0.0 4.0 4 31
+ 0.38492 4 3 ack 40 ------- 0 4.0 0.0 4 90
- 0.38492 4 3 ack 40 ------- 0 4.0 0.0 4 90
+ 0.385 1 2 cbr 210 ------- 0 1.0 5.0 76 91
- 0.385 1 2 cbr 210 ------- 0 1.0 5.0 76 91
r 0.38532 3 5 cbr 210 ------- 0 1.0 5.0 41 49
r 0.38636 2 3 cbr 210 ------- 0 1.0 5.0 47 55
+ 0.38636 3 5 cbr 210 ------- 0 1.0 5.0 47 55
- 0.38636 3 5 cbr 210 ------- 0 1.0 5.0 47 55
- 0.38652 2 3 cbr 210 ------- 0 1.0 5.0 60 70
r 0.38793 1 2 cbr 210 ------- 0 1.0 5.0 71 84
+ 0.38793 2 3 cbr 210 ------- 0 1.0 5.0 71 84
+ 0.38875 1 2 cbr 210 ------- 0 1.0 5.0 77 92
- 0.38875 1 2 cbr 210 ------- 0 1.0 5.0 77 92
r 0.38972 2 3 cbr 210 ------- 0 1.0 5.0 48 56
+ 0.38972 3 5 cbr 210 ------- 0 1.0 5.0 48 56
- 0.38972 3 5 cbr 210 ------- 0 1.0 5.0 48 56
- 0.38988 2 3 cbr 210 ------- 0 1.0 5.0 64 75
r 0.39168 1 2 cbr 210 ------- 0 1.0 5.0 72 85
+ 0.39168 2 3 cbr 210 ------- 0 1.0 5.0 72 85
+ 0.3925 1 2 cbr 210 ------- 0 1.0 5.0 78 93
- 0.3925 1 2 cbr 210 ------- 0 1.0 5.0 78 93
r 0.39308 2 3 cbr 210 ------- 0 1.0 5.0 52 61
+ 0.39308 3 5 cbr 210 ------- 0 1.0 5.0 52 61
- 0.39308 3 5 cbr 210 ------- 0 1.0 5.0 52 61
- 0.39324 2 3 cbr 210 ------- 0 1.0 5.0 65 76
r 0.39543 1 2 cbr 210 ------- 0 1.0 5.0 73 86
+ 0.39543 2 3 cbr 210 ------- 0 1.0 5.0 73 86
+ 0.39625 1 2 cbr 210 ------- 0 1.0 5.0 79 94
- 0.39625 1 2 cbr 210 ------- 0 1.0 5.0 79 94
r 0.39644 2 3 cbr 210 ------- 0 1.0 5.0 53 62
+ 0.39644 3 5 cbr 210 ------- 0 1.0 5.0 53 62
- 0.39644 3 5 cbr 210 ------- 0 1.0 5.0 53 62
- 0.3966 2 3 cbr 210 ------- 0 1.0 5.0 66 77
r 0.39918 1 2 cbr 210 ------- 0 1.0 5.0 74 87
+ 0.39918 2 3 cbr 210 ------- 0 1.0 5.0 74 87
r 0.3998 2 3 cbr 210 ------- 0 1.0 5.0 54 63
+ 0.3998 3 5 cbr 210 ------- 0 1.0 5.0 54 63
- 0.3998 3 5 cbr 210 ------- 0 1.0 5.0 54 63
- 0.39996 2 3 cbr 210 ------- 0 1.0 5.0 67 78
+ 0.4 1 2 cbr 210 ------- 0 1.0 5.0 80 95
- 0.4 1 2 cbr 210 ------- 0 1.0 5.0 80 95
r 0.40076 2 0 ack 40 ------- 0 4.0 0.0 2 74
+ 0.40076 0 2 tcp 1000 ------- 0 0.0 4.0 10 96
- 0.40076 0 2 tcp 1000 ------- 0 0.0 4.0 10 96
r 0.40293 1 2 cbr 210 ------- 0 1.0 5.0 75 89
+ 0.40293 2 3 cbr 210 ------- 0 1.0 5.0 75 89
r 0.40316 2 3 cbr 210 ------- 0 1.0 5.0 58 68
+ 0.40316 3 5 cbr 210 ------- 0 1.0 5.0 58 68