+ 0.1 1 2 cbr 210 ------- 0 1.0 5.0 0 0
- 0.1 1 2 cbr 210 ------- 0 1.0 5.0 0 0
+ 0.11 1 2 cbr 210 ------- 0 1.0 5.0 1 1
- 0.11 1 2 cbr 210 ------- 0 1.0 5.0 1 1
+ 0.12 1 2 cbr 210 ------- 0 1.0 5.0 2 2
- 0.12 1 2 cbr 210 ------- 0 1.0 5.0 2 2
r 0.12168 1 2 cbr 210 ------- 0 1.0 5.0 0 0
+ 0.12168 2 3 cbr 210 ------- 0 1.0 5.0 0 0
- 0.12168 2 3 cbr 210 ------- 0 1.0 5.0 0 0
+ 0.13 1 2 cbr 210 ------- 0 1.0 5.0 3 3
- 0.13 1 2 cbr 210 ------- 0 1.0 5.0 3 3
r 0.13168 1 2 cbr 210 ------- 0 1.0 5.0 1 1
+ 0.13168 2 3 cbr 210 ------- 0 1.0 5.0 1 1
- 0.13168 2 3 cbr 210 ------- 0 1.0 5.0 1 1
+ 0.14 1 2 cbr 210 ------- 0 1.0 5.0 4 4
- 0.14 1 2 cbr 210 ------- 0 1.0 5.0 4 4
r 0.14168 1 2 cbr 210 ------- 0 1.0 5.0 2 2
+ 0.14168 2 3 cbr 210 ------- 0 1.0 5.0 2 2
- 0.14168 2 3 cbr 210 ------- 0 1.0 5.0 2 2
r 0.14504 2 3 cbr 210 ------- 0 1.0 5.0 0 0
+ 0.14504 3 5 cbr 210 ------- 0 1.0 5.0 0 0
- 0.14504 3 5 cbr 210 ------- 0 1.0 5.0 0 0
+ 0.15 1 2 cbr 210 ------- 0 1.0 5.0 5 5
- 0.15 1 2 cbr 210 ------- 0 1.0 5.0 5 5
r 0.15168 1 2 cbr 210 ------- 0 1.0 5.0 3 3
+ 0.15168 2 3 cbr 210 ------- 0 1.0 5.0 3 3
- 0.15168 2 3 cbr 210 ------- 0 1.0 5.0 3 3
r 0.15504 2 3 cbr 210 ------- 0 1.0 5.0 1 1
+ 0.15504 3 5 cbr 210 ------- 0 1.0 5.0 1 1
- 0.15504 3 5 cbr 210 ------- 0 1.0 5.0 1 1
+ 0.16 1 2 cbr 210 ------- 0 1.0 5.0 6 6
- 0.16 1 2 cbr 210 ------- 0 1.0 5.0 6 6
r 0.16168 1 2 cbr 210 ------- 0 1.0 5.0 4 4
+ 0.16168 2 3 cbr 210 ------- 0 1.0 5.0 4 4
- 0.16168 2 3 cbr 210 ------- 0 1.0 5.0 4 4
r 0.16504 2 3 cbr 210 ------- 0 1.0 5.0 2 2
+ 0.16504 3 5 cbr 210 ------- 0 1.0 5.0 2 2
- 0.16504 3 5 cbr 210 ------- 0 1.0 5.0 2 2
r 0.16672 3 5 cbr 210 ------- 0 1.0 5.0 0 0
+ 0.17 1 2 cbr 210 ------- 0 1.0 5.0 7 7
- 0.17 1 2 cbr 210 ------- 0 1.0 5.0 7 7
r 0.17168 1 2 cbr 210 ------- 0 1.0 5.0 5 5
+ 0.17168 2 3 cbr 210 ------- 0 1.0 5.0 5 5
- 0.17168 2 3 cbr 210 ------- 0 1.0 5.0 5 5
r 0.17504 2 3 cbr 210 ------- 0 1.0 5.0 3 3
+ 0.17504 3 5 cbr 210 ------- 0 1.0 5.0 3 3
- 0.17504 3 5 cbr 210 ------- 0 1.0 5.0 3 3
r 0.17672 3 5 cbr 210 ------- 0 1.0 5.0 1 1
+ 0.18 1 2 cbr 210 ------- 0 1.0 5.0 8 8
- 0.18 1 2 cbr 210 ------- 0 1.0 5.0 8 8
r 0.18168 1 2 cbr 210 ------- 0 1.0 5.0 6 6
+ 0.18168 2 3 cbr 210 ------- 0 1.0 5.0 6 6
- 0.18168 2 3 cbr 210 ------- 0 1.0 5.0 6 6
r 0.18504 2 3 cbr 210 ------- 0 1.0 5.0 4 4
+ 0.18504 3 5 cbr 210 ------- 0 1.0 5.0 4 4
- 0.18504 3 5 cbr 210 ------- 0 1.0 5.0 4 4
r 0.18672 3 5 cbr 210 ------- 0 1.0 5.0 2 2
+ 0.19 1 2 cbr 210 ------- 0 1.0 5.0 9 9
- 0.19 1 2 cbr 210 ------- 0 1.0 5.0 9 9
r 0.19168 1 2 cbr 210 ------- 0 1.0 5.0 7 7
+ 0.19168 2 3 cbr 210 ------- 0 1.0 5.0 7 7
- 0.19168 2 3 cbr 210 ------- 0 1.0 5.0 7 7
r 0.19504 2 3 cbr 210 ------- 0 1.0 5.0 5 5
+ 0.19504 3 5 cbr 210 ------- 0 1.0 5.0 5 5
- 0.19504 3 5 cbr 210 ------- 0 1.0 5.0 5 5
r 0.19672 3 5 cbr 210 ------- 0 1.0 5.0 3 3
+ 0.2 0 2 tcp 1000 ------- 0 0.0 4.0 0 10
- 0.2 0 2 tcp 1000 ------- 0 0.0 4.0 0 10
+ 0.2 0 2 tcp 1000 ------- 0 0.0 4.0 1 11
+ 0.2 0 2 tcp 1000 ------- 0 0.0 4.0 2 12
+ 0.2 0 2 tcp 1000 ------- 0 0.0 4.0 3 13
+ 0.2 0 2 tcp 1000 ------- 0 0.0 4.0 4 14
+ 0.2 0 2 tcp 1000 ------- 0 0.0 4.0 5 15
+ 0.2 0 2 tcp 1000 ------- 0 0.0 4.0 6 16
+ 0.2 0 2 tcp 1000 ------- 0 0.0 4.0 7 17
+ 0.2 1 2 cbr 210 ------- 0 1.0 5.0 10 18
- 0.2 1 2 cbr 210 ------- 0 1.0 5.0 10 18
r 0.20168 1 2 cbr 210 ------- 0 1.0 5.0 8 8
+ 0.20168 2 3 cbr 210 ------- 0 1.0 5.0 8 8
- 0.20168 2 3 cbr 210 ------- 0 1.0 5.0 8 8
r 0.20504 2 3 cbr 210 ------- 0 1.0 5.0 6 6
+ 0.20504 3 5 cbr 210 ------- 0 1.0 5.0 6 6
- 0.20504 3 5 cbr 210 ------- 0 1.0 5.0 6 6
r 0.20672 3 5 cbr 210 ------- 0 1.0 5.0 4 4
- 0.208 0 2 tcp 1000 ------- 0 0.0 4.0 1 11
+ 0.21 1 2 cbr 210 ------- 0 1.0 5.0 11 19
- 0.21 1 2 cbr 210 ------- 0 1.0 5.0 11 19
r 0.21168 1 2 cbr 210 ------- 0 1.0 5.0 9 9
+ 0.21168 2 3 cbr 210 ------- 0 1.0 5.0 9 9
- 0.21168 2 3 cbr 210 ------- 0 1.0 5.0 9 9
r 0.21504 2 3 cbr 210 ------- 0 1.0 5.0 7 7
+ 0.21504 3 5 cbr 210 ------- 0 1.0 5.0 7 7
- 0.21504 3 5 cbr 210 ------- 0 1.0 5.0 7 7
- 0.216 0 2 tcp 1000 ------- 0 0.0 4.0 2 12
r 0.21672 3 5 cbr 210 ------- 0 1.0 5.0 5 5
+ 0.22 1 2 cbr 210 ------- 0 1.0 5.0 12 20
- 0.22 1 2 cbr 210 ------- 0 1.0 5.0 12 20
r 0.22168 1 2 cbr 210 ------- 0 1.0 5.0 10 18
+ 0.22168 2 3 cbr 210 ------- 0 1.0 5.0 10 18
- 0.22168 2 3 cbr 210 ------- 0 1.0 5.0 10 18
- 0.224 0 2 tcp 1000 ------- 0 0.0 4.0 3 13
r 0.22504 2 3 cbr 210 ------- 0 1.0 5.0 8 8
+ 0.22504 3 5 cbr 210 ------- 0 1.0 5.0 8 8
- 0.22504 3 5 cbr 210 ------- 0 1.0 5.0 8 8
r 0.22672 3 5 cbr 210 ------- 0 1.0 5.0 6 6
r 0.228 0 2 tcp 1000 ------- 0 0.0 4.0 0 10
+ 0.228 2 3 tcp 1000 ------- 0 0.0 4.0 0 10
- 0.228 2 3 tcp 1000 ------- 0 0.0 4.0 0 10
+ 0.23 1 2 cbr 210 ------- 0 1.0 5.0 13 21
- 0.23 1 2 cbr 210 ------- 0 1.0 5.0 13 21
r 0.23168 1 2 cbr 210 ------- 0 1.0 5.0 11 19
+ 0.23168 2 3 cbr 210 ------- 0 1.0 5.0 11 19
- 0.232 0 2 tcp 1000 ------- 0 0.0 4.0 4 14
r 0.23504 2 3 cbr 210 ------- 0 1.0 5.0 9 9
+ 0.23504 3 5 cbr 210 ------- 0 1.0 5.0 9 9
- 0.23504 3 5 cbr 210 ------- 0 1.0 5.0 9 9
r 0.236 0 2 tcp 1000 ------- 0 0.0 4.0 1 11
+ 0.236 2 3 tcp 1000 ------- 0 0.0 4.0 1 11
r 0.23672 3 5 cbr 210 ------- 0 1.0 5.0 7 7
- 0.24 0 2 tcp 1000 ------- 0 0.0 4.0 5 15
+ 0.24 1 2 cbr 210 ------- 0 1.0 5.0 14 22
- 0.24 1 2 cbr 210 ------- 0 1.0 5.0 14 22
r 0.24168 1 2 cbr 210 ------- 0 1.0 5.0 12 20
+ 0.24168 2 3 cbr 210 ------- 0 1.0 5.0 12 20
- 0.244 2 3 cbr 210 ------- 0 1.0 5.0 11 19
r 0.244 0 2 tcp 1000 ------- 0 0.0 4.0 2 12
+ 0.244 2 3 tcp 1000 ------- 0 0.0 4.0 2 12
r 0.24504 2 3 cbr 210 ------- 0 1.0 5.0 10 18
+ 0.24504 3 5 cbr 210 ------- 0 1.0 5.0 10 18
- 0.24504 3 5 cbr 210 ------- 0 1.0 5.0 10 18
r 0.24672 3 5 cbr 210 ------- 0 1.0 5.0 8 8
- 0.24736 2 3 tcp 1000 ------- 0 0.0 4.0 1 11
- 0.248 0 2 tcp 1000 ------- 0 0.0 4.0 6 16
+ 0.25 1 2 cbr 210 ------- 0 1.0 5.0 15 23
- 0.25 1 2 cbr 210 ------- 0 1.0 5.0 15 23
r 0.25168 1 2 cbr 210 ------- 0 1.0 5.0 13 21
+ 0.25168 2 3 cbr 210 ------- 0 1.0 5.0 13 21
r 0.252 0 2 tcp 1000 ------- 0 0.0 4.0 3 13
+ 0.252 2 3 tcp 1000 ------- 0 0.0 4.0 3 13
- 0.256 0 2 tcp 1000 ------- 0 0.0 4.0 7 17
r 0.25672 3 5 cbr 210 ------- 0 1.0 5.0 9 9
r 0.26 0 2 tcp 1000 ------- 0 0.0 4.0 4 14
+ 0.26 2 3 tcp 1000 ------- 0 0.0 4.0 4 14
+ 0.26 1 2 cbr 210 ------- 0 1.0 5.0 16 24
- 0.26 1 2 cbr 210 ------- 0 1.0 5.0 16 24
r 0.26168 1 2 cbr 210 ------- 0 1.0 5.0 14 22
+ 0.26168 2 3 cbr 210 ------- 0 1.0 5.0 14 22
- 0.26336 2 3 cbr 210 ------- 0 1.0 5.0 12 20
r 0.264 2 3 tcp 1000 ------- 0 0.0 4.0 0 10
+ 0.264 3 4 tcp 1000 ------- 0 0.0 4.0 0 10
- 0.264 3 4 tcp 1000 ------- 0 0.0 4.0 0 10
- 0.26672 2 3 tcp 1000 ------- 0 0.0 4.0 2 12
r 0.26672 3 5 cbr 210 ------- 0 1.0 5.0 10 18
r 0.26736 2 3 cbr 210 ------- 0 1.0 5.0 11 19
+ 0.26736 3 5 cbr 210 ------- 0 1.0 5.0 11 19
- 0.26736 3 5 cbr 210 ------- 0 1.0 5.0 11 19
r 0.268 0 2 tcp 1000 ------- 0 0.0 4.0 5 15
+ 0.268 2 3 tcp 1000 ------- 0 0.0 4.0 5 15
+ 0.27 1 2 cbr 210 ------- 0 1.0 5.0 17 25
- 0.27 1 2 cbr 210 ------- 0 1.0 5.0 17 25
r 0.27168 1 2 cbr 210 ------- 0 1.0 5.0 15 23
+ 0.27168 2 3 cbr 210 ------- 0 1.0 5.0 15 23
r 0.276 0 2 tcp 1000 ------- 0 0.0 4.0 6 16
+ 0.276 2 3 tcp 1000 ------- 0 0.0 4.0 6 16
+ 0.28 1 2 cbr 210 ------- 0 1.0 5.0 18 26
- 0.28 1 2 cbr 210 ------- 0 1.0 5.0 18 26
r 0.28168 1 2 cbr 210 ------- 0 1.0 5.0 16 24
+ 0.28168 2 3 cbr 210 ------- 0 1.0 5.0 16 24
- 0.28272 2 3 cbr 210 ------- 0 1.0 5.0 13 21
r 0.28336 2 3 tcp 1000 ------- 0 0.0 4.0 1 11
+ 0.28336 3 4 tcp 1000 ------- 0 0.0 4.0 1 11
- 0.28336 3 4 tcp 1000 ------- 0 0.0 4.0 1 11
r 0.284 0 2 tcp 1000 ------- 0 0.0 4.0 7 17
+ 0.284 2 3 tcp 1000 ------- 0 0.0 4.0 7 17
- 0.28608 2 3 tcp 1000 ------- 0 0.0 4.0 3 13
r 0.28672 2 3 cbr 210 ------- 0 1.0 5.0 12 20
+ 0.28672 3 5 cbr 210 ------- 0 1.0 5.0 12 20
- 0.28672 3 5 cbr 210 ------- 0 1.0 5.0 12 20
r 0.28904 3 5 cbr 210 ------- 0 1.0 5.0 11 19
+ 0.29 1 2 cbr 210 ------- 0 1.0 5.0 19 27
- 0.29 1 2 cbr 210 ------- 0 1.0 5.0 19 27
r 0.29168 1 2 cbr 210 ------- 0 1.0 5.0 17 25
+ 0.29168 2 3 cbr 210 ------- 0 1.0 5.0 17 25
r 0.292 3 4 tcp 1000 ------- 0 0.0 4.0 0 10
+ 0.292 4 3 ack 40 ------- 0 4.0 0.0 0 28
- 0.292 4 3 ack 40 ------- 0 4.0 0.0 0 28
+ 0.3 1 2 cbr 210 ------- 0 1.0 5.0 20 29
- 0.3 1 2 cbr 210 ------- 0 1.0 5.0 20 29
r 0.30168 1 2 cbr 210 ------- 0 1.0 5.0 18 26
+ 0.30168 2 3 cbr 210 ------- 0 1.0 5.0 18 26
- 0.30208 2 3 tcp 1000 ------- 0 0.0 4.0 4 14
r 0.30272 2 3 tcp 1000 ------- 0 0.0 4.0 2 12
+ 0.30272 3 4 tcp 1000 ------- 0 0.0 4.0 2 12
- 0.30272 3 4 tcp 1000 ------- 0 0.0 4.0 2 12
r 0.30608 2 3 cbr 210 ------- 0 1.0 5.0 13 21
+ 0.30608 3 5 cbr 210 ------- 0 1.0 5.0 13 21
- 0.30608 3 5 cbr 210 ------- 0 1.0 5.0 13 21
r 0.3084 3 5 cbr 210 ------- 0 1.0 5.0 12 20
+ 0.31 1 2 cbr 210 ------- 0 1.0 5.0 21 30
- 0.31 1 2 cbr 210 ------- 0 1.0 5.0 21 30
r 0.31136 3 4 tcp 1000 ------- 0 0.0 4.0 1 11
+ 0.31136 4 3 ack 40 ------- 0 4.0 0.0 1 31
- 0.31136 4 3 ack 40 ------- 0 4.0 0.0 1 31
r 0.31168 1 2 cbr 210 ------- 0 1.0 5.0 19 27
+ 0.31168 2 3 cbr 210 ------- 0 1.0 5.0 19 27
r 0.31232 4 3 ack 40 ------- 0 4.0 0.0 0 28
+ 0.31232 3 2 ack 40 ------- 0 4.0 0.0 0 28
- 0.31232 3 2 ack 40 ------- 0 4.0 0.0 0 28
- 0.31808 2 3 cbr 210 ------- 0 1.0 5.0 14 22
+ 0.32 1 2 cbr 210 ------- 0 1.0 5.0 22 32
- 0.32 1 2 cbr 210 ------- 0 1.0 5.0 22 32
- 0.32144 2 3 tcp 1000 ------- 0 0.0 4.0 5 15
r 0.32168 1 2 cbr 210 ------- 0 1.0 5.0 20 29
+ 0.32168 2 3 cbr 210 ------- 0 1.0 5.0 20 29
r 0.32208 2 3 tcp 1000 ------- 0 0.0 4.0 3 13
+ 0.32208 3 4 tcp 1000 ------- 0 0.0 4.0 3 13
- 0.32208 3 4 tcp 1000 ------- 0 0.0 4.0 3 13
r 0.32776 3 5 cbr 210 ------- 0 1.0 5.0 13 21
+ 0.33 1 2 cbr 210 ------- 0 1.0 5.0 23 33
- 0.33 1 2 cbr 210 ------- 0 1.0 5.0 23 33
r 0.33072 3 4 tcp 1000 ------- 0 0.0 4.0 2 12
+ 0.33072 4 3 ack 40 ------- 0 4.0 0.0 2 34
- 0.33072 4 3 ack 40 ------- 0 4.0 0.0 2 34
r 0.33168 4 3 ack 40 ------- 0 4.0 0.0 1 31
+ 0.33168 3 2 ack 40 ------- 0 4.0 0.0 1 31
- 0.33168 3 2 ack 40 ------- 0 4.0 0.0 1 31
r 0.33168 1 2 cbr 210 ------- 0 1.0 5.0 21 30
+ 0.33168 2 3 cbr 210 ------- 0 1.0 5.0 21 30
r 0.33296 3 2 ack 40 ------- 0 4.0 0.0 0 28
+ 0.33296 2 0 ack 40 ------- 0 4.0 0.0 0 28
- 0.33296 2 0 ack 40 ------- 0 4.0 0.0 0 28
- 0.33744 2 3 cbr 210 ------- 0 1.0 5.0 15 23
r 0.33808 2 3 tcp 1000 ------- 0 0.0 4.0 4 14
+ 0.33808 3 4 tcp 1000 ------- 0 0.0 4.0 4 14
- 0.33808 3 4 tcp 1000 ------- 0 0.0 4.0 4 14
+ 0.34 1 2 cbr 210 ------- 0 1.0 5.0 24 35
- 0.34 1 2 cbr 210 ------- 0 1.0 5.0 24 35
- 0.3408 2 3 tcp 1000 ------- 0 0.0 4.0 6 16
r 0.34144 2 3 cbr 210 ------- 0 1.0 5.0 14 22
+ 0.34144 3 5 cbr 210 ------- 0 1.0 5.0 14 22
- 0.34144 3 5 cbr 210 ------- 0 1.0 5.0 14 22
r 0.34168 1 2 cbr 210 ------- 0 1.0 5.0 22 32
+ 0.34168 2 3 cbr 210 ------- 0 1.0 5.0 22 32
+ 0.35 1 2 cbr 210 ------- 0 1.0 5.0 25 36
- 0.35 1 2 cbr 210 ------- 0 1.0 5.0 25 36
r 0.35008 3 4 tcp 1000 ------- 0 0.0 4.0 3 13
+ 0.35008 4 3 ack 40 ------- 0 4.0 0.0 3 37
- 0.35008 4 3 ack 40 ------- 0 4.0 0.0 3 37
r 0.35104 4 3 ack 40 ------- 0 4.0 0.0 2 34
+ 0.35104 3 2 ack 40 ------- 0 4.0 0.0 2 34
- 0.35104 3 2 ack 40 ------- 0 4.0 0.0 2 34
r 0.35168 1 2 cbr 210 ------- 0 1.0 5.0 23 33
+ 0.35168 2 3 cbr 210 ------- 0 1.0 5.0 23 33
r 0.35232 3 2 ack 40 ------- 0 4.0 0.0 1 31
+ 0.35232 2 0 ack 40 ------- 0 4.0 0.0 1 31
- 0.35232 2 0 ack 40 ------- 0 4.0 0.0 1 31
r 0.35328 2 0 ack 40 ------- 0 4.0 0.0 0 28
+ 0.35328 0 2 tcp 1000 ------- 0 0.0 4.0 8 38
- 0.35328 0 2 tcp 1000 ------- 0 0.0 4.0 8 38
- 0.3568 2 3 cbr 210 ------- 0 1.0 5.0 16 24
r 0.35744 2 3 tcp 1000 ------- 0 0.0 4.0 5 15
+ 0.35744 3 4 tcp 1000 ------- 0 0.0 4.0 5 15
- 0.35744 3 4 tcp 1000 ------- 0 0.0 4.0 5 15
+ 0.36 1 2 cbr 210 ------- 0 1.0 5.0 26 39
- 0.36 1 2 cbr 210 ------- 0 1.0 5.0 26 39
- 0.36016 2 3 tcp 1000 ------- 0 0.0 4.0 7 17
r 0.3608 2 3 cbr 210 ------- 0 1.0 5.0 15 23
+ 0.3608 3 5 cbr 210 ------- 0 1.0 5.0 15 23
- 0.3608 3 5 cbr 210 ------- 0 1.0 5.0 15 23
r 0.36168 1 2 cbr 210 ------- 0 1.0 5.0 24 35
+ 0.36168 2 3 cbr 210 ------- 0 1.0 5.0 24 35
r 0.36312 3 5 cbr 210 ------- 0 1.0 5.0 14 22
r 0.36608 3 4 tcp 1000 ------- 0 0.0 4.0 4 14
+ 0.36608 4 3 ack 40 ------- 0 4.0 0.0 4 40
- 0.36608 4 3 ack 40 ------- 0 4.0 0.0 4 40
+ 0.37 1 2 cbr 210 ------- 0 1.0 5.0 27 41
- 0.37 1 2 cbr 210 ------- 0 1.0 5.0 27 41
r 0.3704 4 3 ack 40 ------- 0 4.0 0.0 3 37
+ 0.3704 3 2 ack 40 ------- 0 4.0 0.0 3 37
- 0.3704 3 2 ack 40 ------- 0 4.0 0.0 3 37
r 0.37168 3 2 ack 40 ------- 0 4.0 0.0 2 34
+ 0.37168 2 0 ack 40 ------- 0 4.0 0.0 2 34
- 0.37168 2 0 ack 40 ------- 0 4.0 0.0 2 34
r 0.37168 1 2 cbr 210 ------- 0 1.0 5.0 25 36
+ 0.37168 2 3 cbr 210 ------- 0 1.0 5.0 25 36
r 0.37264 2 0 ack 40 ------- 0 4.0 0.0 1 31
+ 0.37264 0 2 tcp 1000 ------- 0 0.0 4.0 9 42
- 0.37264 0 2 tcp 1000 ------- 0 0.0 4.0 9 42
- 0.37616 2 3 cbr 210 ------- 0 1.0 5.0 17 25
r 0.3768 2 3 tcp 1000 ------- 0 0.0 4.0 6 16
+ 0.3768 3 4 tcp 1000 ------- 0 0.0 4.0 6 16
- 0.3768 3 4 tcp 1000 ------- 0 0.0 4.0 6 16
- 0.37952 2 3 cbr 210 ------- 0 1.0 5.0 18 26
+ 0.38 1 2 cbr 210 ------- 0 1.0 5.0 28 43
- 0.38 1 2 cbr 210 ------- 0 1.0 5.0 28 43
r 0.38016 2 3 cbr 210 ------- 0 1.0 5.0 16 24
+ 0.38016 3 5 cbr 210 ------- 0 1.0 5.0 16 24
- 0.38016 3 5 cbr 210 ------- 0 1.0 5.0 16 24
r 0.38128 0 2 tcp 1000 ------- 0 0.0 4.0 8 38
+ 0.38128 2 3 tcp 1000 ------- 0 0.0 4.0 8 38
r 0.38168 1 2 cbr 210 ------- 0 1.0 5.0 26 39
+ 0.38168 2 3 cbr 210 ------- 0 1.0 5.0 26 39
r 0.38248 3 5 cbr 210 ------- 0 1.0 5.0 15 23
- 0.38288 2 3 cbr 210 ------- 0 1.0 5.0 19 27
r 0.38544 3 4 tcp 1000 ------- 0 0.0 4.0 5 15
+ 0.38544 4 3 ack 40 ------- 0 4.0 0.0 5 44
- 0.38544 4 3 ack 40 ------- 0 4.0 0.0 5 44
- 0.38624 2 3 cbr 210 ------- 0 1.0 5.0 20 29
r 0.3864 4 3 ack 40 ------- 0 4.0 0.0 4 40
+ 0.3864 3 2 ack 40 ------- 0 4.0 0.0 4 40
- 0.3864 3 2 ack 40 ------- 0 4.0 0.0 4 40
- 0.3896 2 3 cbr 210 ------- 0 1.0 5.0 21 30
+ 0.39 1 2 cbr 210 ------- 0 1.0 5.0 29 45
- 0.39 1 2 cbr 210 ------- 0 1.0 5.0 29 45
r 0.39104 3 2 ack 40 ------- 0 4.0 0.0 3 37
+ 0.39104 2 0 ack 40 ------- 0 4.0 0.0 3 37
- 0.39104 2 0 ack 40 ------- 0 4.0 0.0 3 37
r 0.39168 1 2 cbr 210 ------- 0 1.0 5.0 27 41
+ 0.39168 2 3 cbr 210 ------- 0 1.0 5.0 27 41
r 0.392 2 0 ack 40 ------- 0 4.0 0.0 2 34
+ 0.392 0 2 tcp 1000 ------- 0 0.0 4.0 10 46
- 0.392 0 2 tcp 1000 ------- 0 0.0 4.0 10 46
- 0.39296 2 3 cbr 210 ------- 0 1.0 5.0 22 32
r 0.39616 2 3 tcp 1000 ------- 0 0.0 4.0 7 17
+ 0.39616 3 4 tcp 1000 ------- 0 0.0 4.0 7 17
- 0.39616 3 4 tcp 1000 ------- 0 0.0 4.0 7 17
- 0.39632 2 3 cbr 210 ------- 0 1.0 5.0 23 33
r 0.39952 2 3 cbr 210 ------- 0 1.0 5.0 17 25
+ 0.39952 3 5 cbr 210 ------- 0 1.0 5.0 17 25
- 0.39952 3 5 cbr 210 ------- 0 1.0 5.0 17 25
- 0.39968 2 3 cbr 210 ------- 0 1.0 5.0 24 35
+ 0.4 1 2 cbr 210 ------- 0 1.0 5.0 30 47
- 0.4 1 2 cbr 210 ------- 0 1.0 5.0 30 47
r 0.40064 0 2 tcp 1000 ------- 0 0.0 4.0 9 42
+ 0.40064 2 3 tcp 1000 ------- 0 0.0 4.0 9 42
r 0.40168 1 2 cbr 210 ------- 0 1.0 5.0 28 43
+ 0.40168 2 3 cbr 210 ------- 0 1.0 5.0 28 43
r 0.40184 3 5 cbr 210 ------- 0 1.0 5.0 16 24
r 0.40288 2 3 cbr 210 ------- 0 1.0 5.0 18 26
+ 0.40288 3 5 cbr 210 ------- 0 1.0 5.0 18 26
- 0.40288 3 5 cbr 210 ------- 0 1.0 5.0 18 26
- 0.40304 2 3 cbr 210 ------- 0 1.0 5.0 25 36
r 0.4048 3 4 tcp 1000 ------- 0 0.0 4.0 6 16
+ 0.4048 4 3 ack 40 ------- 0 4.0 0.0 6 48
- 0.4048 4 3 ack 40 ------- 0 4.0 0.0 6 48
r 0.40576 4 3 ack 40 ------- 0 4.0 0.0 5 44
+ 0.40576 3 2 ack 40 ------- 0 4.0 0.0 5 44
- 0.40576 3 2 ack 40 ------- 0 4.0 0.0 5 44
r 0.40624 2 3 cbr 210 ------- 0 1.0 5.0 19 27
+ 0.40624 3 5 cbr 210 ------- 0 1.0 5.0 19 27
- 0.40624 3 5 cbr 210 ------- 0 1.0 5.0 19 27
- 0.4064 2 3 tcp 1000 ------- 0 0.0 4.0 8 38
r 0.40704 3 2 ack 40 ------- 0 4.0 0.0 4 40
+ 0.40704 2 0 ack 40 ------- 0 4.0 0.0 4 40
- 0.40704 2 0 ack 40 ------- 0 4.0 0.0 4 40
r 0.4096 2 3 cbr 210 ------- 0 1.0 5.0 20 29
+ 0.4096 3 5 cbr 210 ------- 0 1.0 5.0 20 29
- 0.4096 3 5 cbr 210 ------- 0 1.0 5.0 20 29
+ 0.41 1 2 cbr 210 ------- 0 1.0 5.0 31 49
- 0.41 1 2 cbr 210 ------- 0 1.0 5.0 31 49
r 0.41136 2 0 ack 40 ------- 0 4.0 0.0 3 37
+ 0.41136 0 2 tcp 1000 ------- 0 0.0 4.0 11 50
- 0.41136 0 2 tcp 1000 ------- 0 0.0 4.0 11 50
r 0.41168 1 2 cbr 210 ------- 0 1.0 5.0 29 45
+ 0.41168 2 3 cbr 210 ------- 0 1.0 5.0 29 45
r 0.41296 2 3 cbr 210 ------- 0 1.0 5.0 21 30
+ 0.41296 3 5 cbr 210 ------- 0 1.0 5.0 21 30
- 0.41296 3 5 cbr 210 ------- 0 1.0 5.0 21 30
r 0.41632 2 3 cbr 210 ------- 0 1.0 5.0 22 32
+ 0.41632 3 5 cbr 210 ------- 0 1.0 5.0 22 32
- 0.41632 3 5 cbr 210 ------- 0 1.0 5.0 22 32
r 0.41968 2 3 cbr 210 ------- 0 1.0 5.0 23 33
+ 0.41968 3 5 cbr 210 ------- 0 1.0 5.0 23 33
- 0.41968 3 5 cbr 210 ------- 0 1.0 5.0 23 33
r 0.42 0 2 tcp 1000 ------- 0 0.0 4.0 10 46
+ 0.42 2 3 tcp 1000 ------- 0 0.0 4.0 10 46
+ 0.42 1 2 cbr 210 ------- 0 1.0 5.0 32 51
- 0.42 1 2 cbr 210 ------- 0 1.0 5.0 32 51
r 0.4212 3 5 cbr 210 ------- 0 1.0 5.0 17 25
r 0.42168 1 2 cbr 210 ------- 0 1.0 5.0 30 47
+ 0.42168 2 3 cbr 210 ------- 0 1.0 5.0 30 47
- 0.4224 2 3 cbr 210 ------- 0 1.0 5.0 26 39
r 0.42304 2 3 cbr 210 ------- 0 1.0 5.0 24 35
+ 0.42304 3 5 cbr 210 ------- 0 1.0 5.0 24 35
- 0.42304 3 5 cbr 210 ------- 0 1.0 5.0 24 35
r 0.42416 3 4 tcp 1000 ------- 0 0.0 4.0 7 17
+ 0.42416 4 3 ack 40 ------- 0 4.0 0.0 7 52
- 0.42416 4 3 ack 40 ------- 0 4.0 0.0 7 52
r 0.42456 3 5 cbr 210 ------- 0 1.0 5.0 18 26
r 0.42512 4 3 ack 40 ------- 0 4.0 0.0 6 48
+ 0.42512 3 2 ack 40 ------- 0 4.0 0.0 6 48
- 0.42512 3 2 ack 40 ------- 0 4.0 0.0 6 48
- 0.42576 2 3 cbr 210 ------- 0 1.0 5.0 27 41
r 0.4264 2 3 cbr 210 ------- 0 1.0 5.0 25 36
+ 0.4264 3 5 cbr 210 ------- 0 1.0 5.0 25 36
- 0.4264 3 5 cbr 210 ------- 0 1.0 5.0 25 36
r 0.4264 3 2 ack 40 ------- 0 4.0 0.0 5 44
+ 0.4264 2 0 ack 40 ------- 0 4.0 0.0 5 44
- 0.4264 2 0 ack 40 ------- 0 4.0 0.0 5 44
r 0.42736 2 0 ack 40 ------- 0 4.0 0.0 4 40
+ 0.42736 0 2 tcp 1000 ------- 0 0.0 4.0 12 53
- 0.42736 0 2 tcp 1000 ------- 0 0.0 4.0 12 53
r 0.42792 3 5 cbr 210 ------- 0 1.0 5.0 19 27
- 0.42912 2 3 tcp 1000 ------- 0 0.0 4.0 9 42
+ 0.43 1 2 cbr 210 ------- 0 1.0 5.0 33 54
- 0.43 1 2 cbr 210 ------- 0 1.0 5.0 33 54
r 0.43128 3 5 cbr 210 ------- 0 1.0 5.0 20 29
r 0.43168 1 2 cbr 210 ------- 0 1.0 5.0 31 49
+ 0.43168 2 3 cbr 210 ------- 0 1.0 5.0 31 49
r 0.43464 3 5 cbr 210 ------- 0 1.0 5.0 21 30
r 0.438 3 5 cbr 210 ------- 0 1.0 5.0 22 32
r 0.43936 0 2 tcp 1000 ------- 0 0.0 4.0 11 50
+ 0.43936 2 3 tcp 1000 ------- 0 0.0 4.0 11 50
+ 0.44 1 2 cbr 210 ------- 0 1.0 5.0 34 55
- 0.44 1 2 cbr 210 ------- 0 1.0 5.0 34 55
r 0.44136 3 5 cbr 210 ------- 0 1.0 5.0 23 33
r 0.44168 1 2 cbr 210 ------- 0 1.0 5.0 32 51
+ 0.44168 2 3 cbr 210 ------- 0 1.0 5.0 32 51
r 0.4424 2 3 tcp 1000 ------- 0 0.0 4.0 8 38
+ 0.4424 3 4 tcp 1000 ------- 0 0.0 4.0 8 38
- 0.4424 3 4 tcp 1000 ------- 0 0.0 4.0 8 38
r 0.44448 4 3 ack 40 ------- 0 4.0 0.0 7 52
+ 0.44448 3 2 ack 40 ------- 0 4.0 0.0 7 52
- 0.44448 3 2 ack 40 ------- 0 4.0 0.0 7 52
r 0.44472 3 5 cbr 210 ------- 0 1.0 5.0 24 35
- 0.44512 2 3 cbr 210 ------- 0 1.0 5.0 28 43
r 0.44576 2 3 cbr 210 ------- 0 1.0 5.0 26 39
+ 0.44576 3 5 cbr 210 ------- 0 1.0 5.0 26 39
- 0.44576 3 5 cbr 210 ------- 0 1.0 5.0 26 39
r 0.44576 3 2 ack 40 ------- 0 4.0 0.0 6 48
+ 0.44576 2 0 ack 40 ------- 0 4.0 0.0 6 48
- 0.44576 2 0 ack 40 ------- 0 4.0 0.0 6 48
r 0.44672 2 0 ack 40 ------- 0 4.0 0.0 5 44
+ 0.44672 0 2 tcp 1000 ------- 0 0.0 4.0 13 56
- 0.44672 0 2 tcp 1000 ------- 0 0.0 4.0 13 56
r 0.44808 3 5 cbr 210 ------- 0 1.0 5.0 25 36
- 0.44848 2 3 cbr 210 ------- 0 1.0 5.0 29 45
r 0.44912 2 3 cbr 210 ------- 0 1.0 5.0 27 41
+ 0.44912 3 5 cbr 210 ------- 0 1.0 5.0 27 41
- 0.44912 3 5 cbr 210 ------- 0 1.0 5.0 27 41
+ 0.45 1 2 cbr 210 ------- 0 1.0 5.0 35 57
- 0.45 1 2 cbr 210 ------- 0 1.0 5.0 35 57
r 0.45168 1 2 cbr 210 ------- 0 1.0 5.0 33 54
+ 0.45168 2 3 cbr 210 ------- 0 1.0 5.0 33 54
- 0.45184 2 3 tcp 1000 ------- 0 0.0 4.0 10 46
r 0.45536 0 2 tcp 1000 ------- 0 0.0 4.0 12 53
+ 0.45536 2 3 tcp 1000 ------- 0 0.0 4.0 12 53
+ 0.46 1 2 cbr 210 ------- 0 1.0 5.0 36 58
- 0.46 1 2 cbr 210 ------- 0 1.0 5.0 36 58
r 0.46168 1 2 cbr 210 ------- 0 1.0 5.0 34 55
+ 0.46168 2 3 cbr 210 ------- 0 1.0 5.0 34 55
r 0.46512 2 3 tcp 1000 ------- 0 0.0 4.0 9 42
+ 0.46512 3 4 tcp 1000 ------- 0 0.0 4.0 9 42
- 0.46512 3 4 tcp 1000 ------- 0 0.0 4.0 9 42
r 0.46512 3 2 ack 40 ------- 0 4.0 0.0 7 52
+ 0.46512 2 0 ack 40 ------- 0 4.0 0.0 7 52
- 0.46512 2 0 ack 40 ------- 0 4.0 0.0 7 52
r 0.46608 2 0 ack 40 ------- 0 4.0 0.0 6 48
+ 0.46608 0 2 tcp 1000 ------- 0 0.0 4.0 14 59
- 0.46608 0 2 tcp 1000 ------- 0 0.0 4.0 14 59
r 0.46744 3 5 cbr 210 ------- 0 1.0 5.0 26 39
- 0.46784 2 3 cbr 210 ------- 0 1.0 5.0 30 47
r 0.46848 2 3 cbr 210 ------- 0 1.0 5.0 28 43
+ 0.46848 3 5 cbr 210 ------- 0 1.0 5.0 28 43
- 0.46848 3 5 cbr 210 ------- 0 1.0 5.0 28 43
+ 0.47 1 2 cbr 210 ------- 0 1.0 5.0 37 60
- 0.47 1 2 cbr 210 ------- 0 1.0 5.0 37 60
r 0.4704 3 4 tcp 1000 ------- 0 0.0 4.0 8 38
+ 0.4704 4 3 ack 40 ------- 0 4.0 0.0 8 61
- 0.4704 4 3 ack 40 ------- 0 4.0 0.0 8 61
r 0.4708 3 5 cbr 210 ------- 0 1.0 5.0 27 41
- 0.4712 2 3 cbr 210 ------- 0 1.0 5.0 31 49
r 0.47168 1 2 cbr 210 ------- 0 1.0 5.0 35 57
+ 0.47168 2 3 cbr 210 ------- 0 1.0 5.0 35 57
r 0.47184 2 3 cbr 210 ------- 0 1.0 5.0 29 45
+ 0.47184 3 5 cbr 210 ------- 0 1.0 5.0 29 45
- 0.47184 3 5 cbr 210 ------- 0 1.0 5.0 29 45
- 0.47456 2 3 tcp 1000 ------- 0 0.0 4.0 11 50
r 0.47472 0 2 tcp 1000 ------- 0 0.0 4.0 13 56
+ 0.47472 2 3 tcp 1000 ------- 0 0.0 4.0 13 56
+ 0.48 1 2 cbr 210 ------- 0 1.0 5.0 38 62
- 0.48 1 2 cbr 210 ------- 0 1.0 5.0 38 62
r 0.48168 1 2 cbr 210 ------- 0 1.0 5.0 36 58
+ 0.48168 2 3 cbr 210 ------- 0 1.0 5.0 36 58
r 0.48544 2 0 ack 40 ------- 0 4.0 0.0 7 52
+ 0.48544 0 2 tcp 1000 ------- 0 0.0 4.0 15 63
- 0.48544 0 2 tcp 1000 ------- 0 0.0 4.0 15 63
r 0.48784 2 3 tcp 1000 ------- 0 0.0 4.0 10 46
+ 0.48784 3 4 tcp 1000 ------- 0 0.0 4.0 10 46
- 0.48784 3 4 tcp 1000 ------- 0 0.0 4.0 10 46
+ 0.49 1 2 cbr 210 ------- 0 1.0 5.0 39 64
- 0.49 1 2 cbr 210 ------- 0 1.0 5.0 39 64
r 0.49016 3 5 cbr 210 ------- 0 1.0 5.0 28 43
- 0.49056 2 3 cbr 210 ------- 0 1.0 5.0 32 51
r 0.49072 4 3 ack 40 ------- 0 4.0 0.0 8 61
+ 0.49072 3 2 ack 40 ------- 0 4.0 0.0 8 61
- 0.49072 3 2 ack 40 ------- 0 4.0 0.0 8 61
r 0.4912 2 3 cbr 210 ------- 0 1.0 5.0 30 47
+ 0.4912 3 5 cbr 210 ------- 0 1.0 5.0 30 47
- 0.4912 3 5 cbr 210 ------- 0 1.0 5.0 30 47
r 0.49168 1 2 cbr 210 ------- 0 1.0 5.0 37 60
+ 0.49168 2 3 cbr 210 ------- 0 1.0 5.0 37 60
r 0.49312 3 4 tcp 1000 ------- 0 0.0 4.0 9 42
+ 0.49312 4 3 ack 40 ------- 0 4.0 0.0 9 65
- 0.49312 4 3 ack 40 ------- 0 4.0 0.0 9 65
r 0.49352 3 5 cbr 210 ------- 0 1.0 5.0 29 45
- 0.49392 2 3 cbr 210 ------- 0 1.0 5.0 33 54
r 0.49408 0 2 tcp 1000 ------- 0 0.0 4.0 14 59
+ 0.49408 2 3 tcp 1000 ------- 0 0.0 4.0 14 59
r 0.49456 2 3 cbr 210 ------- 0 1.0 5.0 31 49
+ 0.49456 3 5 cbr 210 ------- 0 1.0 5.0 31 49
- 0.49456 3 5 cbr 210 ------- 0 1.0 5.0 31 49
- 0.49728 2 3 tcp 1000 ------- 0 0.0 4.0 12 53
+ 0.5 1 2 cbr 210 ------- 0 1.0 5.0 40 66
- 0.5 1 2 cbr 210 ------- 0 1.0 5.0 40 66
r 0.50168 1 2 cbr 210 ------- 0 1.0 5.0 38 62
+ 0.50168 2 3 cbr 210 ------- 0 1.0 5.0 38 62
+ 0.51 1 2 cbr 210 ------- 0 1.0 5.0 41 67
- 0.51 1 2 cbr 210 ------- 0 1.0 5.0 41 67
r 0.51056 2 3 tcp 1000 ------- 0 0.0 4.0 11 50
+ 0.51056 3 4 tcp 1000 ------- 0 0.0 4.0 11 50
- 0.51056 3 4 tcp 1000 ------- 0 0.0 4.0 11 50
r 0.51136 3 2 ack 40 ------- 0 4.0 0.0 8 61
+ 0.51136 2 0 ack 40 ------- 0 4.0 0.0 8 61
- 0.51136 2 0 ack 40 ------- 0 4.0 0.0 8 61
r 0.51168 1 2 cbr 210 ------- 0 1.0 5.0 39 64
+ 0.51168 2 3 cbr 210 ------- 0 1.0 5.0 39 64
r 0.51288 3 5 cbr 210 ------- 0 1.0 5.0 30 47
- 0.51328 2 3 cbr 210 ------- 0 1.0 5.0 34 55
r 0.51344 4 3 ack 40 ------- 0 4.0 0.0 9 65
+ 0.51344 3 2 ack 40 ------- 0 4.0 0.0 9 65
- 0.51344 3 2 ack 40 ------- 0 4.0 0.0 9 65
r 0.51344 0 2 tcp 1000 ------- 0 0.0 4.0 15 63
+ 0.51344 2 3 tcp 1000 ------- 0 0.0 4.0 15 63
r 0.51392 2 3 cbr 210 ------- 0 1.0 5.0 32 51
+ 0.51392 3 5 cbr 210 ------- 0 1.0 5.0 32 51
- 0.51392 3 5 cbr 210 ------- 0 1.0 5.0 32 51
r 0.51584 3 4 tcp 1000 ------- 0 0.0 4.0 10 46
+ 0.51584 4 3 ack 40 ------- 0 4.0 0.0 10 68
- 0.51584 4 3 ack 40 ------- 0 4.0 0.0 10 68
r 0.51624 3 5 cbr 210 ------- 0 1.0 5.0 31 49
- 0.51664 2 3 cbr 210 ------- 0 1.0 5.0 35 57
r 0.51728 2 3 cbr 210 ------- 0 1.0 5.0 33 54
+ 0.51728 3 5 cbr 210 ------- 0 1.0 5.0 33 54
- 0.51728 3 5 cbr 210 ------- 0 1.0 5.0 33 54
- 0.52 2 3 tcp 1000 ------- 0 0.0 4.0 13 56
+ 0.52 1 2 cbr 210 ------- 0 1.0 5.0 42 69
- 0.52 1 2 cbr 210 ------- 0 1.0 5.0 42 69
r 0.52168 1 2 cbr 210 ------- 0 1.0 5.0 40 66
+ 0.52168 2 3 cbr 210 ------- 0 1.0 5.0 40 66
+ 0.53 1 2 cbr 210 ------- 0 1.0 5.0 43 70
- 0.53 1 2 cbr 210 ------- 0 1.0 5.0 43 70
r 0.53168 2 0 ack 40 ------- 0 4.0 0.0 8 61
+ 0.53168 0 2 tcp 1000 ------- 0 0.0 4.0 16 71
- 0.53168 0 2 tcp 1000 ------- 0 0.0 4.0 16 71
r 0.53168 1 2 cbr 210 ------- 0 1.0 5.0 41 67
+ 0.53168 2 3 cbr 210 ------- 0 1.0 5.0 41 67
r 0.53328 2 3 tcp 1000 ------- 0 0.0 4.0 12 53
+ 0.53328 3 4 tcp 1000 ------- 0 0.0 4.0 12 53
- 0.53328 3 4 tcp 1000 ------- 0 0.0 4.0 12 53
r 0.53408 3 2 ack 40 ------- 0 4.0 0.0 9 65
+ 0.53408 2 0 ack 40 ------- 0 4.0 0.0 9 65
- 0.53408 2 0 ack 40 ------- 0 4.0 0.0 9 65
r 0.5356 3 5 cbr 210 ------- 0 1.0 5.0 32 51
- 0.536 2 3 cbr 210 ------- 0 1.0 5.0 36 58
r 0.53616 4 3 ack 40 ------- 0 4.0 0.0 10 68
+ 0.53616 3 2 ack 40 ------- 0 4.0 0.0 10 68
- 0.53616 3 2 ack 40 ------- 0 4.0 0.0 10 68
r 0.53664 2 3 cbr 210 ------- 0 1.0 5.0 34 55
+ 0.53664 3 5 cbr 210 ------- 0 1.0 5.0 34 55
- 0.53664 3 5 cbr 210 ------- 0 1.0 5.0 34 55
r 0.53856 3 4 tcp 1000 ------- 0 0.0 4.0 11 50
+ 0.53856 4 3 ack 40 ------- 0 4.0 0.0 11 72
- 0.53856 4 3 ack 40 ------- 0 4.0 0.0 11 72
r 0.53896 3 5 cbr 210 ------- 0 1.0 5.0 33 54
- 0.53936 2 3 cbr 210 ------- 0 1.0 5.0 37 60
r 0.54 2 3 cbr 210 ------- 0 1.0 5.0 35 57
+ 0.54 3 5 cbr 210 ------- 0 1.0 5.0 35 57
- 0.54 3 5 cbr 210 ------- 0 1.0 5.0 35 57
+ 0.54 1 2 cbr 210 ------- 0 1.0 5.0 44 73
- 0.54 1 2 cbr 210 ------- 0 1.0 5.0 44 73
r 0.54168 1 2 cbr 210 ------- 0 1.0 5.0 42 69
+ 0.54168 2 3 cbr 210 ------- 0 1.0 5.0 42 69
- 0.54272 2 3 tcp 1000 ------- 0 0.0 4.0 14 59
+ 0.55 1 2 cbr 210 ------- 0 1.0 5.0 45 74
- 0.55 1 2 cbr 210 ------- 0 1.0 5.0 45 74
r 0.55168 1 2 cbr 210 ------- 0 1.0 5.0 43 70
+ 0.55168 2 3 cbr 210 ------- 0 1.0 5.0 43 70
r 0.5544 2 0 ack 40 ------- 0 4.0 0.0 9 65
+ 0.5544 0 2 tcp 1000 ------- 0 0.0 4.0 17 75
- 0.5544 0 2 tcp 1000 ------- 0 0.0 4.0 17 75
r 0.556 2 3 tcp 1000 ------- 0 0.0 4.0 13 56
+ 0.556 3 4 tcp 1000 ------- 0 0.0 4.0 13 56
- 0.556 3 4 tcp 1000 ------- 0 0.0 4.0 13 56
r 0.5568 3 2 ack 40 ------- 0 4.0 0.0 10 68
+ 0.5568 2 0 ack 40 ------- 0 4.0 0.0 10 68
- 0.5568 2 0 ack 40 ------- 0 4.0 0.0 10 68
r 0.55832 3 5 cbr 210 ------- 0 1.0 5.0 34 55
- 0.55872 2 3 cbr 210 ------- 0 1.0 5.0 38 62
r 0.55888 4 3 ack 40 ------- 0 4.0 0.0 11 72
+ 0.55888 3 2 ack 40 ------- 0 4.0 0.0 11 72
- 0.55888 3 2 ack 40 ------- 0 4.0 0.0 11 72
r 0.55936 2 3 cbr 210 ------- 0 1.0 5.0 36 58
+ 0.55936 3 5 cbr 210 ------- 0 1.0 5.0 36 58
- 0.55936 3 5 cbr 210 ------- 0 1.0 5.0 36 58
r 0.55968 0 2 tcp 1000 ------- 0 0.0 4.0 16 71
+ 0.55968 2 3 tcp 1000 ------- 0 0.0 4.0 16 71
+ 0.56 1 2 cbr 210 ------- 0 1.0 5.0 46 76
- 0.56 1 2 cbr 210 ------- 0 1.0 5.0 46 76
r 0.56128 3 4 tcp 1000 ------- 0 0.0 4.0 12 53
+ 0.56128 4 3 ack 40 ------- 0 4.0 0.0 12 77
- 0.56128 4 3 ack 40 ------- 0 4.0 0.0 12 77
r 0.56168 3 5 cbr 210 ------- 0 1.0 5.0 35 57
r 0.56168 1 2 cbr 210 ------- 0 1.0 5.0 44 73
+ 0.56168 2 3 cbr 210 ------- 0 1.0 5.0 44 73
- 0.56208 2 3 cbr 210 ------- 0 1.0 5.0 39 64
r 0.56272 2 3 cbr 210 ------- 0 1.0 5.0 37 60
+ 0.56272 3 5 cbr 210 ------- 0 1.0 5.0 37 60
- 0.56272 3 5 cbr 210 ------- 0 1.0 5.0 37 60
- 0.56544 2 3 tcp 1000 ------- 0 0.0 4.0 15 63
+ 0.57 1 2 cbr 210 ------- 0 1.0 5.0 47 78
- 0.57 1 2 cbr 210 ------- 0 1.0 5.0 47 78
r 0.57168 1 2 cbr 210 ------- 0 1.0 5.0 45 74
+ 0.57168 2 3 cbr 210 ------- 0 1.0 5.0 45 74
r 0.57712 2 0 ack 40 ------- 0 4.0 0.0 10 68
+ 0.57712 0 2 tcp 1000 ------- 0 0.0 4.0 18 79
- 0.57712 0 2 tcp 1000 ------- 0 0.0 4.0 18 79
r 0.57872 2 3 tcp 1000 ------- 0 0.0 4.0 14 59
+ 0.57872 3 4 tcp 1000 ------- 0 0.0 4.0 14 59
- 0.57872 3 4 tcp 1000 ------- 0 0.0 4.0 14 59
r 0.57952 3 2 ack 40 ------- 0 4.0 0.0 11 72
+ 0.57952 2 0 ack 40 ------- 0 4.0 0.0 11 72
- 0.57952 2 0 ack 40 ------- 0 4.0 0.0 11 72
+ 0.58 1 2 cbr 210 ------- 0 1.0 5.0 48 80
- 0.58 1 2 cbr 210 ------- 0 1.0 5.0 48 80
r 0.58104 3 5 cbr 210 ------- 0 1.0 5.0 36 58
- 0.58144 2 3 cbr 210 ------- 0 1.0 5.0 40 66
r 0.5816 4 3 ack 40 ------- 0 4.0 0.0 12 77
+ 0.5816 3 2 ack 40 ------- 0 4.0 0.0 12 77
- 0.5816 3 2 ack 40 ------- 0 4.0 0.0 12 77
r 0.58168 1 2 cbr 210 ------- 0 1.0 5.0 46 76
+ 0.58168 2 3 cbr 210 ------- 0 1.0 5.0 46 76
r 0.58208 2 3 cbr 210 ------- 0 1.0 5.0 38 62
+ 0.58208 3 5 cbr 210 ------- 0 1.0 5.0 38 62
- 0.58208 3 5 cbr 210 ------- 0 1.0 5.0 38 62
r 0.5824 0 2 tcp 1000 ------- 0 0.0 4.0 17 75
+ 0.5824 2 3 tcp 1000 ------- 0 0.0 4.0 17 75
r 0.584 3 4 tcp 1000 ------- 0 0.0 4.0 13 56
+ 0.584 4 3 ack 40 ------- 0 4.0 0.0 13 81
- 0.584 4 3 ack 40 ------- 0 4.0 0.0 13 81
r 0.5844 3 5 cbr 210 ------- 0 1.0 5.0 37 60
- 0.5848 2 3 cbr 210 ------- 0 1.0 5.0 41 67
r 0.58544 2 3 cbr 210 ------- 0 1.0 5.0 39 64
+ 0.58544 3 5 cbr 210 ------- 0 1.0 5.0 39 64
- 0.58544 3 5 cbr 210 ------- 0 1.0 5.0 39 64
- 0.58816 2 3 cbr 210 ------- 0 1.0 5.0 42 69
+ 0.59 1 2 cbr 210 ------- 0 1.0 5.0 49 82
- 0.59 1 2 cbr 210 ------- 0 1.0 5.0 49 82
- 0.59152 2 3 cbr 210 ------- 0 1.0 5.0 43 70
r 0.59168 1 2 cbr 210 ------- 0 1.0 5.0 47 78
+ 0.59168 2 3 cbr 210 ------- 0 1.0 5.0 47 78
- 0.59488 2 3 tcp 1000 ------- 0 0.0 4.0 16 71
r 0.59984 2 0 ack 40 ------- 0 4.0 0.0 11 72
+ 0.59984 0 2 tcp 1000 ------- 0 0.0 4.0 19 83
- 0.59984 0 2 tcp 1000 ------- 0 0.0 4.0 19 83
+ 0.6 1 2 cbr 210 ------- 0 1.0 5.0 50 84
- 0.6 1 2 cbr 210 ------- 0 1.0 5.0 50 84
r 0.60144 2 3 tcp 1000 ------- 0 0.0 4.0 15 63
+ 0.60144 3 4 tcp 1000 ------- 0 0.0 4.0 15 63
- 0.60144 3 4 tcp 1000 ------- 0 0.0 4.0 15 63