+ 0.1 0 1 tcp 40 ------- 0 0.0 1.0 0 0
- 0.1 0 1 tcp 40 ------- 0 0.0 1.0 0 0
+ 0.1 0 1 tcp 1040 ------- 0 0.0 1.0 1 1
- 0.10032 0 1 tcp 1040 ------- 0 0.0 1.0 1 1
+ 0.11 0 1 tcp 1040 ------- 0 0.0 1.0 2 2
- 0.11 0 1 tcp 1040 ------- 0 0.0 1.0 2 2
+ 0.12 0 1 tcp 1040 ------- 0 0.0 1.0 3 3
- 0.12 0 1 tcp 1040 ------- 0 0.0 1.0 3 3
r 0.12032 0 1 tcp 40 ------- 0 0.0 1.0 0 0
+ 0.12032 1 0 ack 40 ------- 0 1.0 0.0 0 4
- 0.12032 1 0 ack 40 ------- 0 1.0 0.0 0 4
r 0.12864 0 1 tcp 1040 ------- 0 0.0 1.0 1 1
+ 0.12864 1 0 ack 40 ------- 0 1.0 0.0 1 5
- 0.12864 1 0 ack 40 ------- 0 1.0 0.0 1 5
+ 0.13 0 1 tcp 1040 ------- 0 0.0 1.0 4 6
- 0.13 0 1 tcp 1040 ------- 0 0.0 1.0 4 6
r 0.13832 0 1 tcp 1040 ------- 0 0.0 1.0 2 2
+ 0.13832 1 0 ack 40 ------- 0 1.0 0.0 2 7
- 0.13832 1 0 ack 40 ------- 0 1.0 0.0 2 7
+ 0.14 0 1 tcp 40 ------- 0 0.0 1.0 0 8
- 0.14 0 1 tcp 40 ------- 0 0.0 1.0 0 8
+ 0.14 0 1 tcp 1040 ------- 0 0.0 1.0 1 9
+ 0.14 0 1 tcp 1040 ------- 0 0.0 1.0 2 10
+ 0.14 0 1 tcp 1040 ------- 0 0.0 1.0 3 11
+ 0.14 0 1 tcp 1040 ------- 0 0.0 1.0 4 12
+ 0.14 0 1 tcp 1040 ------- 0 0.0 1.0 5 13
- 0.14032 0 1 tcp 1040 ------- 0 0.0 1.0 1 9
r 0.14064 1 0 ack 40 ------- 0 1.0 0.0 0 4
r 0.14832 0 1 tcp 1040 ------- 0 0.0 1.0 3 3
+ 0.14832 1 0 ack 40 ------- 0 1.0 0.0 3 14
- 0.14832 1 0 ack 40 ------- 0 1.0 0.0 3 14
- 0.14864 0 1 tcp 1040 ------- 0 0.0 1.0 2 10
r 0.14896 1 0 ack 40 ------- 0 1.0 0.0 1 5
- 0.15696 0 1 tcp 1040 ------- 0 0.0 1.0 3 11
r 0.15832 0 1 tcp 1040 ------- 0 0.0 1.0 4 6
+ 0.15832 1 0 ack 40 ------- 0 1.0 0.0 4 15
- 0.15832 1 0 ack 40 ------- 0 1.0 0.0 4 15
r 0.15864 1 0 ack 40 ------- 0 1.0 0.0 2 7
r 0.16032 0 1 tcp 40 ------- 0 0.0 1.0 0 8
+ 0.16032 1 0 ack 40 ------- 0 1.0 0.0 4 16
- 0.16032 1 0 ack 40 ------- 0 1.0 0.0 4 16
- 0.16528 0 1 tcp 1040 ------- 0 0.0 1.0 4 12
r 0.16864 0 1 tcp 1040 ------- 0 0.0 1.0 1 9
+ 0.16864 1 0 ack 40 ------- 0 1.0 0.0 4 17
- 0.16864 1 0 ack 40 ------- 0 1.0 0.0 4 17
r 0.16864 1 0 ack 40 ------- 0 1.0 0.0 3 14
- 0.1736 0 1 tcp 1040 ------- 0 0.0 1.0 5 13
r 0.17696 0 1 tcp 1040 ------- 0 0.0 1.0 2 10
+ 0.17696 1 0 ack 40 ------- 0 1.0 0.0 4 18
- 0.17696 1 0 ack 40 ------- 0 1.0 0.0 4 18
r 0.17864 1 0 ack 40 ------- 0 1.0 0.0 4 15
+ 0.17864 0 1 tcp 1040 ------- 0 0.0 1.0 6 19
r 0.18064 1 0 ack 40 ------- 0 1.0 0.0 4 16
- 0.18192 0 1 tcp 1040 ------- 0 0.0 1.0 6 19
r 0.18528 0 1 tcp 1040 ------- 0 0.0 1.0 3 11
+ 0.18528 1 0 ack 40 ------- 0 1.0 0.0 4 20
- 0.18528 1 0 ack 40 ------- 0 1.0 0.0 4 20
r 0.18896 1 0 ack 40 ------- 0 1.0 0.0 4 17
r 0.1936 0 1 tcp 1040 ------- 0 0.0 1.0 4 12
+ 0.1936 1 0 ack 40 ------- 0 1.0 0.0 4 21
- 0.1936 1 0 ack 40 ------- 0 1.0 0.0 4 21
r 0.19728 1 0 ack 40 ------- 0 1.0 0.0 4 18
+ 0.19728 0 1 tcp 1040 ------- 0 0.0 1.0 5 22
- 0.19728 0 1 tcp 1040 ------- 0 0.0 1.0 5 22
+ 0.19728 0 1 tcp 1040 ------- 0 0.0 1.0 6 23
r 0.20192 0 1 tcp 1040 ------- 0 0.0 1.0 5 13
+ 0.20192 1 0 ack 40 ------- 0 1.0 0.0 5 24
- 0.20192 1 0 ack 40 ------- 0 1.0 0.0 5 24
r 0.2056 1 0 ack 40 ------- 0 1.0 0.0 4 20
- 0.2056 0 1 tcp 1040 ------- 0 0.0 1.0 6 23
r 0.21024 0 1 tcp 1040 ------- 0 0.0 1.0 6 19
+ 0.21024 1 0 ack 40 ------- 0 1.0 0.0 6 25
- 0.21024 1 0 ack 40 ------- 0 1.0 0.0 6 25
r 0.21392 1 0 ack 40 ------- 0 1.0 0.0 4 21
r 0.22224 1 0 ack 40 ------- 0 1.0 0.0 5 24
+ 0.22224 0 1 tcp 1040 ------- 0 0.0 1.0 7 26
- 0.22224 0 1 tcp 1040 ------- 0 0.0 1.0 7 26
r 0.2256 0 1 tcp 1040 ------- 0 0.0 1.0 5 22
+ 0.2256 1 0 ack 40 ------- 0 1.0 0.0 6 27
- 0.2256 1 0 ack 40 ------- 0 1.0 0.0 6 27
r 0.23056 1 0 ack 40 ------- 0 1.0 0.0 6 25
+ 0.23056 0 1 tcp 1040 ------- 0 0.0 1.0 8 28
- 0.23056 0 1 tcp 1040 ------- 0 0.0 1.0 8 28
r 0.23392 0 1 tcp 1040 ------- 0 0.0 1.0 6 23
+ 0.23392 1 0 ack 40 ------- 0 1.0 0.0 6 29
- 0.23392 1 0 ack 40 ------- 0 1.0 0.0 6 29
r 0.24592 1 0 ack 40 ------- 0 1.0 0.0 6 27
r 0.25056 0 1 tcp 1040 ------- 0 0.0 1.0 7 26
+ 0.25056 1 0 ack 40 ------- 0 1.0 0.0 7 30
- 0.25056 1 0 ack 40 ------- 0 1.0 0.0 7 30
r 0.25424 1 0 ack 40 ------- 0 1.0 0.0 6 29
r 0.25888 0 1 tcp 1040 ------- 0 0.0 1.0 8 28
+ 0.25888 1 0 ack 40 ------- 0 1.0 0.0 8 31
- 0.25888 1 0 ack 40 ------- 0 1.0 0.0 8 31
+ 0.27056 0 1 tcp 1040 ------- 0 0.0 1.0 7 32
- 0.27056 0 1 tcp 1040 ------- 0 0.0 1.0 7 32
+ 0.27056 0 1 tcp 1040 ------- 0 0.0 1.0 8 33
r 0.27088 1 0 ack 40 ------- 0 1.0 0.0 7 30
+ 0.27088 0 1 tcp 1040 ------- 0 0.0 1.0 9 34
- 0.27888 0 1 tcp 1040 ------- 0 0.0 1.0 8 33
r 0.2792 1 0 ack 40 ------- 0 1.0 0.0 8 31
+ 0.2792 0 1 tcp 1040 ------- 0 0.0 1.0 10 35
- 0.2872 0 1 tcp 1040 ------- 0 0.0 1.0 9 34
- 0.29552 0 1 tcp 1040 ------- 0 0.0 1.0 10 35
r 0.29888 0 1 tcp 1040 ------- 0 0.0 1.0 7 32
+ 0.29888 1 0 ack 40 ------- 0 1.0 0.0 8 36
- 0.29888 1 0 ack 40 ------- 0 1.0 0.0 8 36
r 0.3072 0 1 tcp 1040 ------- 0 0.0 1.0 8 33
+ 0.3072 1 0 ack 40 ------- 0 1.0 0.0 8 37
- 0.3072 1 0 ack 40 ------- 0 1.0 0.0 8 37
r 0.31552 0 1 tcp 1040 ------- 0 0.0 1.0 9 34
+ 0.31552 1 0 ack 40 ------- 0 1.0 0.0 9 38
- 0.31552 1 0 ack 40 ------- 0 1.0 0.0 9 38
+ 0.3192 0 1 tcp 1040 ------- 0 0.0 1.0 9 39
- 0.3192 0 1 tcp 1040 ------- 0 0.0 1.0 9 39
+ 0.3192 0 1 tcp 1040 ------- 0 0.0 1.0 10 40
r 0.3192 1 0 ack 40 ------- 0 1.0 0.0 8 36
r 0.32384 0 1 tcp 1040 ------- 0 0.0 1.0 10 35
+ 0.32384 1 0 ack 40 ------- 0 1.0 0.0 10 41
- 0.32384 1 0 ack 40 ------- 0 1.0 0.0 10 41
r 0.32752 1 0 ack 40 ------- 0 1.0 0.0 8 37
- 0.32752 0 1 tcp 1040 ------- 0 0.0 1.0 10 40
r 0.33584 1 0 ack 40 ------- 0 1.0 0.0 9 38
+ 0.33584 0 1 tcp 1040 ------- 0 0.0 1.0 11 42
- 0.33584 0 1 tcp 1040 ------- 0 0.0 1.0 11 42
r 0.34416 1 0 ack 40 ------- 0 1.0 0.0 10 41
+ 0.34416 0 1 tcp 1040 ------- 0 0.0 1.0 12 43
- 0.34416 0 1 tcp 1040 ------- 0 0.0 1.0 12 43
r 0.34752 0 1 tcp 1040 ------- 0 0.0 1.0 9 39
+ 0.34752 1 0 ack 40 ------- 0 1.0 0.0 10 44
- 0.34752 1 0 ack 40 ------- 0 1.0 0.0 10 44
r 0.35584 0 1 tcp 1040 ------- 0 0.0 1.0 10 40
+ 0.35584 1 0 ack 40 ------- 0 1.0 0.0 10 45
- 0.35584 1 0 ack 40 ------- 0 1.0 0.0 10 45
r 0.36416 0 1 tcp 1040 ------- 0 0.0 1.0 11 42
+ 0.36416 1 0 ack 40 ------- 0 1.0 0.0 11 46
- 0.36416 1 0 ack 40 ------- 0 1.0 0.0 11 46
r 0.36784 1 0 ack 40 ------- 0 1.0 0.0 10 44
r 0.37248 0 1 tcp 1040 ------- 0 0.0 1.0 12 43
+ 0.37248 1 0 ack 40 ------- 0 1.0 0.0 12 47
- 0.37248 1 0 ack 40 ------- 0 1.0 0.0 12 47
r 0.37616 1 0 ack 40 ------- 0 1.0 0.0 10 45
+ 0.38416 0 1 tcp 1040 ------- 0 0.0 1.0 11 48
- 0.38416 0 1 tcp 1040 ------- 0 0.0 1.0 11 48
+ 0.38416 0 1 tcp 1040 ------- 0 0.0 1.0 12 49
r 0.38448 1 0 ack 40 ------- 0 1.0 0.0 11 46
+ 0.38448 0 1 tcp 1040 ------- 0 0.0 1.0 13 50
- 0.39248 0 1 tcp 1040 ------- 0 0.0 1.0 12 49
r 0.3928 1 0 ack 40 ------- 0 1.0 0.0 12 47
+ 0.3928 0 1 tcp 1040 ------- 0 0.0 1.0 14 51
- 0.4008 0 1 tcp 1040 ------- 0 0.0 1.0 13 50
- 0.40912 0 1 tcp 1040 ------- 0 0.0 1.0 14 51
r 0.41248 0 1 tcp 1040 ------- 0 0.0 1.0 11 48
+ 0.41248 1 0 ack 40 ------- 0 1.0 0.0 12 52
- 0.41248 1 0 ack 40 ------- 0 1.0 0.0 12 52
r 0.4208 0 1 tcp 1040 ------- 0 0.0 1.0 12 49
+ 0.4208 1 0 ack 40 ------- 0 1.0 0.0 12 53
- 0.4208 1 0 ack 40 ------- 0 1.0 0.0 12 53
r 0.42912 0 1 tcp 1040 ------- 0 0.0 1.0 13 50
+ 0.42912 1 0 ack 40 ------- 0 1.0 0.0 13 54
- 0.42912 1 0 ack 40 ------- 0 1.0 0.0 13 54
+ 0.4328 0 1 tcp 1040 ------- 0 0.0 1.0 13 55
- 0.4328 0 1 tcp 1040 ------- 0 0.0 1.0 13 55
+ 0.4328 0 1 tcp 1040 ------- 0 0.0 1.0 14 56
r 0.4328 1 0 ack 40 ------- 0 1.0 0.0 12 52
r 0.43744 0 1 tcp 1040 ------- 0 0.0 1.0 14 51
+ 0.43744 1 0 ack 40 ------- 0 1.0 0.0 14 57
- 0.43744 1 0 ack 40 ------- 0 1.0 0.0 14 57
r 0.44112 1 0 ack 40 ------- 0 1.0 0.0 12 53
- 0.44112 0 1 tcp 1040 ------- 0 0.0 1.0 14 56
r 0.44944 1 0 ack 40 ------- 0 1.0 0.0 13 54
+ 0.44944 0 1 tcp 1040 ------- 0 0.0 1.0 15 58
- 0.44944 0 1 tcp 1040 ------- 0 0.0 1.0 15 58
r 0.45776 1 0 ack 40 ------- 0 1.0 0.0 14 57
+ 0.45776 0 1 tcp 1040 ------- 0 0.0 1.0 16 59
- 0.45776 0 1 tcp 1040 ------- 0 0.0 1.0 16 59
r 0.46112 0 1 tcp 1040 ------- 0 0.0 1.0 13 55
+ 0.46112 1 0 ack 40 ------- 0 1.0 0.0 14 60
- 0.46112 1 0 ack 40 ------- 0 1.0 0.0 14 60
r 0.46944 0 1 tcp 1040 ------- 0 0.0 1.0 14 56
+ 0.46944 1 0 ack 40 ------- 0 1.0 0.0 14 61
- 0.46944 1 0 ack 40 ------- 0 1.0 0.0 14 61
r 0.47776 0 1 tcp 1040 ------- 0 0.0 1.0 15 58
+ 0.47776 1 0 ack 40 ------- 0 1.0 0.0 15 62
- 0.47776 1 0 ack 40 ------- 0 1.0 0.0 15 62
r 0.48144 1 0 ack 40 ------- 0 1.0 0.0 14 60
r 0.48608 0 1 tcp 1040 ------- 0 0.0 1.0 16 59
+ 0.48608 1 0 ack 40 ------- 0 1.0 0.0 16 63
- 0.48608 1 0 ack 40 ------- 0 1.0 0.0 16 63
r 0.48976 1 0 ack 40 ------- 0 1.0 0.0 14 61
+ 0.49776 0 1 tcp 1040 ------- 0 0.0 1.0 15 64
- 0.49776 0 1 tcp 1040 ------- 0 0.0 1.0 15 64
+ 0.49776 0 1 tcp 1040 ------- 0 0.0 1.0 16 65
r 0.49808 1 0 ack 40 ------- 0 1.0 0.0 15 62
+ 0.49808 0 1 tcp 1040 ------- 0 0.0 1.0 17 66
- 0.50608 0 1 tcp 1040 ------- 0 0.0 1.0 16 65
r 0.5064 1 0 ack 40 ------- 0 1.0 0.0 16 63
+ 0.5064 0 1 tcp 1040 ------- 0 0.0 1.0 18 67
- 0.5144 0 1 tcp 1040 ------- 0 0.0 1.0 17 66
- 0.52272 0 1 tcp 1040 ------- 0 0.0 1.0 18 67
r 0.52608 0 1 tcp 1040 ------- 0 0.0 1.0 15 64
+ 0.52608 1 0 ack 40 ------- 0 1.0 0.0 16 68
- 0.52608 1 0 ack 40 ------- 0 1.0 0.0 16 68
r 0.5344 0 1 tcp 1040 ------- 0 0.0 1.0 16 65
+ 0.5344 1 0 ack 40 ------- 0 1.0 0.0 16 69
- 0.5344 1 0 ack 40 ------- 0 1.0 0.0 16 69
r 0.54272 0 1 tcp 1040 ------- 0 0.0 1.0 17 66
+ 0.54272 1 0 ack 40 ------- 0 1.0 0.0 17 70
- 0.54272 1 0 ack 40 ------- 0 1.0 0.0 17 70
r 0.5464 1 0 ack 40 ------- 0 1.0 0.0 16 68
+ 0.5464 0 1 tcp 1040 ------- 0 0.0 1.0 17 71
- 0.5464 0 1 tcp 1040 ------- 0 0.0 1.0 17 71
+ 0.5464 0 1 tcp 1040 ------- 0 0.0 1.0 18 72
r 0.55104 0 1 tcp 1040 ------- 0 0.0 1.0 18 67
+ 0.55104 1 0 ack 40 ------- 0 1.0 0.0 18 73
- 0.55104 1 0 ack 40 ------- 0 1.0 0.0 18 73
r 0.55472 1 0 ack 40 ------- 0 1.0 0.0 16 69
- 0.55472 0 1 tcp 1040 ------- 0 0.0 1.0 18 72
r 0.56304 1 0 ack 40 ------- 0 1.0 0.0 17 70
+ 0.56304 0 1 tcp 1040 ------- 0 0.0 1.0 19 74
- 0.56304 0 1 tcp 1040 ------- 0 0.0 1.0 19 74
r 0.57136 1 0 ack 40 ------- 0 1.0 0.0 18 73
+ 0.57136 0 1 tcp 1040 ------- 0 0.0 1.0 20 75
- 0.57136 0 1 tcp 1040 ------- 0 0.0 1.0 20 75
r 0.57472 0 1 tcp 1040 ------- 0 0.0 1.0 17 71
+ 0.57472 1 0 ack 40 ------- 0 1.0 0.0 18 76
- 0.57472 1 0 ack 40 ------- 0 1.0 0.0 18 76
r 0.58304 0 1 tcp 1040 ------- 0 0.0 1.0 18 72
+ 0.58304 1 0 ack 40 ------- 0 1.0 0.0 18 77
- 0.58304 1 0 ack 40 ------- 0 1.0 0.0 18 77
r 0.59136 0 1 tcp 1040 ------- 0 0.0 1.0 19 74
+ 0.59136 1 0 ack 40 ------- 0 1.0 0.0 19 78
- 0.59136 1 0 ack 40 ------- 0 1.0 0.0 19 78
r 0.59504 1 0 ack 40 ------- 0 1.0 0.0 18 76
r 0.59968 0 1 tcp 1040 ------- 0 0.0 1.0 20 75
+ 0.59968 1 0 ack 40 ------- 0 1.0 0.0 20 79
- 0.59968 1 0 ack 40 ------- 0 1.0 0.0 20 79
r 0.60336 1 0 ack 40 ------- 0 1.0 0.0 18 77
+ 0.61136 0 1 tcp 1040 ------- 0 0.0 1.0 19 80
- 0.61136 0 1 tcp 1040 ------- 0 0.0 1.0 19 80
+ 0.61136 0 1 tcp 1040 ------- 0 0.0 1.0 20 81
r 0.61168 1 0 ack 40 ------- 0 1.0 0.0 19 78
+ 0.61168 0 1 tcp 1040 ------- 0 0.0 1.0 21 82
- 0.61968 0 1 tcp 1040 ------- 0 0.0 1.0 20 81
r 0.62 1 0 ack 40 ------- 0 1.0 0.0 20 79
+ 0.62 0 1 tcp 1040 ------- 0 0.0 1.0 22 83
- 0.628 0 1 tcp 1040 ------- 0 0.0 1.0 21 82
- 0.63632 0 1 tcp 1040 ------- 0 0.0 1.0 22 83
r 0.63968 0 1 tcp 1040 ------- 0 0.0 1.0 19 80
+ 0.63968 1 0 ack 40 ------- 0 1.0 0.0 20 84
- 0.63968 1 0 ack 40 ------- 0 1.0 0.0 20 84
r 0.648 0 1 tcp 1040 ------- 0 0.0 1.0 20 81
+ 0.648 1 0 ack 40 ------- 0 1.0 0.0 20 85
- 0.648 1 0 ack 40 ------- 0 1.0 0.0 20 85
r 0.65632 0 1 tcp 1040 ------- 0 0.0 1.0 21 82
+ 0.65632 1 0 ack 40 ------- 0 1.0 0.0 21 86
- 0.65632 1 0 ack 40 ------- 0 1.0 0.0 21 86
+ 0.66 0 1 tcp 1040 ------- 0 0.0 1.0 21 87
- 0.66 0 1 tcp 1040 ------- 0 0.0 1.0 21 87
+ 0.66 0 1 tcp 1040 ------- 0 0.0 1.0 22 88
r 0.66 1 0 ack 40 ------- 0 1.0 0.0 20 84
r 0.66464 0 1 tcp 1040 ------- 0 0.0 1.0 22 83
+ 0.66464 1 0 ack 40 ------- 0 1.0 0.0 22 89
- 0.66464 1 0 ack 40 ------- 0 1.0 0.0 22 89
r 0.66832 1 0 ack 40 ------- 0 1.0 0.0 20 85
- 0.66832 0 1 tcp 1040 ------- 0 0.0 1.0 22 88
r 0.67664 1 0 ack 40 ------- 0 1.0 0.0 21 86
+ 0.67664 0 1 tcp 1040 ------- 0 0.0 1.0 23 90
- 0.67664 0 1 tcp 1040 ------- 0 0.0 1.0 23 90
r 0.68496 1 0 ack 40 ------- 0 1.0 0.0 22 89
+ 0.68496 0 1 tcp 1040 ------- 0 0.0 1.0 24 91
- 0.68496 0 1 tcp 1040 ------- 0 0.0 1.0 24 91
r 0.68832 0 1 tcp 1040 ------- 0 0.0 1.0 21 87
+ 0.68832 1 0 ack 40 ------- 0 1.0 0.0 22 92
- 0.68832 1 0 ack 40 ------- 0 1.0 0.0 22 92
r 0.69664 0 1 tcp 1040 ------- 0 0.0 1.0 22 88
+ 0.69664 1 0 ack 40 ------- 0 1.0 0.0 22 93
- 0.69664 1 0 ack 40 ------- 0 1.0 0.0 22 93
r 0.70496 0 1 tcp 1040 ------- 0 0.0 1.0 23 90
+ 0.70496 1 0 ack 40 ------- 0 1.0 0.0 23 94
- 0.70496 1 0 ack 40 ------- 0 1.0 0.0 23 94
r 0.70864 1 0 ack 40 ------- 0 1.0 0.0 22 92
r 0.71328 0 1 tcp 1040 ------- 0 0.0 1.0 24 91
+ 0.71328 1 0 ack 40 ------- 0 1.0 0.0 24 95
- 0.71328 1 0 ack 40 ------- 0 1.0 0.0 24 95
r 0.71696 1 0 ack 40 ------- 0 1.0 0.0 22 93
+ 0.72496 0 1 tcp 1040 ------- 0 0.0 1.0 23 96
- 0.72496 0 1 tcp 1040 ------- 0 0.0 1.0 23 96
+ 0.72496 0 1 tcp 1040 ------- 0 0.0 1.0 24 97
r 0.72528 1 0 ack 40 ------- 0 1.0 0.0 23 94
+ 0.72528 0 1 tcp 1040 ------- 0 0.0 1.0 25 98
- 0.73328 0 1 tcp 1040 ------- 0 0.0 1.0 24 97
r 0.7336 1 0 ack 40 ------- 0 1.0 0.0 24 95
+ 0.7336 0 1 tcp 1040 ------- 0 0.0 1.0 26 99
- 0.7416 0 1 tcp 1040 ------- 0 0.0 1.0 25 98
- 0.74992 0 1 tcp 1040 ------- 0 0.0 1.0 26 99
r 0.75328 0 1 tcp 1040 ------- 0 0.0 1.0 23 96
+ 0.75328 1 0 ack 40 ------- 0 1.0 0.0 24 100
- 0.75328 1 0 ack 40 ------- 0 1.0 0.0 24 100
r 0.7616 0 1 tcp 1040 ------- 0 0.0 1.0 24 97
+ 0.7616 1 0 ack 40 ------- 0 1.0 0.0 24 101
- 0.7616 1 0 ack 40 ------- 0 1.0 0.0 24 101
r 0.76992 0 1 tcp 1040 ------- 0 0.0 1.0 25 98
+ 0.76992 1 0 ack 40 ------- 0 1.0 0.0 25 102
- 0.76992 1 0 ack 40 ------- 0 1.0 0.0 25 102
+ 0.7736 0 1 tcp 1040 ------- 0 0.0 1.0 25 103
- 0.7736 0 1 tcp 1040 ------- 0 0.0 1.0 25 103
+ 0.7736 0 1 tcp 1040 ------- 0 0.0 1.0 26 104
r 0.7736 1 0 ack 40 ------- 0 1.0 0.0 24 100
r 0.77824 0 1 tcp 1040 ------- 0 0.0 1.0 26 99
+ 0.77824 1 0 ack 40 ------- 0 1.0 0.0 26 105
- 0.77824 1 0 ack 40 ------- 0 1.0 0.0 26 105
r 0.78192 1 0 ack 40 ------- 0 1.0 0.0 24 101
- 0.78192 0 1 tcp 1040 ------- 0 0.0 1.0 26 104
r 0.79024 1 0 ack 40 ------- 0 1.0 0.0 25 102
+ 0.79024 0 1 tcp 1040 ------- 0 0.0 1.0 27 106
- 0.79024 0 1 tcp 1040 ------- 0 0.0 1.0 27 106
r 0.79856 1 0 ack 40 ------- 0 1.0 0.0 26 105
+ 0.79856 0 1 tcp 1040 ------- 0 0.0 1.0 28 107
- 0.79856 0 1 tcp 1040 ------- 0 0.0 1.0 28 107
r 0.80192 0 1 tcp 1040 ------- 0 0.0 1.0 25 103
+ 0.80192 1 0 ack 40 ------- 0 1.0 0.0 26 108
- 0.80192 1 0 ack 40 ------- 0 1.0 0.0 26 108
r 0.81024 0 1 tcp 1040 ------- 0 0.0 1.0 26 104
+ 0.81024 1 0 ack 40 ------- 0 1.0 0.0 26 109
- 0.81024 1 0 ack 40 ------- 0 1.0 0.0 26 109
r 0.81856 0 1 tcp 1040 ------- 0 0.0 1.0 27 106
+ 0.81856 1 0 ack 40 ------- 0 1.0 0.0 27 110
- 0.81856 1 0 ack 40 ------- 0 1.0 0.0 27 110
r 0.82224 1 0 ack 40 ------- 0 1.0 0.0 26 108
r 0.82688 0 1 tcp 1040 ------- 0 0.0 1.0 28 107
+ 0.82688 1 0 ack 40 ------- 0 1.0 0.0 28 111
- 0.82688 1 0 ack 40 ------- 0 1.0 0.0 28 111
r 0.83056 1 0 ack 40 ------- 0 1.0 0.0 26 109
+ 0.83856 0 1 tcp 1040 ------- 0 0.0 1.0 27 112
- 0.83856 0 1 tcp 1040 ------- 0 0.0 1.0 27 112
+ 0.83856 0 1 tcp 1040 ------- 0 0.0 1.0 28 113
r 0.83888 1 0 ack 40 ------- 0 1.0 0.0 27 110
+ 0.83888 0 1 tcp 1040 ------- 0 0.0 1.0 29 114
- 0.84688 0 1 tcp 1040 ------- 0 0.0 1.0 28 113
r 0.8472 1 0 ack 40 ------- 0 1.0 0.0 28 111
+ 0.8472 0 1 tcp 1040 ------- 0 0.0 1.0 30 115
- 0.8552 0 1 tcp 1040 ------- 0 0.0 1.0 29 114
- 0.86352 0 1 tcp 1040 ------- 0 0.0 1.0 30 115
r 0.86688 0 1 tcp 1040 ------- 0 0.0 1.0 27 112
+ 0.86688 1 0 ack 40 ------- 0 1.0 0.0 28 116
- 0.86688 1 0 ack 40 ------- 0 1.0 0.0 28 116
r 0.8752 0 1 tcp 1040 ------- 0 0.0 1.0 28 113
+ 0.8752 1 0 ack 40 ------- 0 1.0 0.0 28 117
- 0.8752 1 0 ack 40 ------- 0 1.0 0.0 28 117
r 0.88352 0 1 tcp 1040 ------- 0 0.0 1.0 29 114
+ 0.88352 1 0 ack 40 ------- 0 1.0 0.0 29 118
- 0.88352 1 0 ack 40 ------- 0 1.0 0.0 29 118
+ 0.8872 0 1 tcp 1040 ------- 0 0.0 1.0 29 119
- 0.8872 0 1 tcp 1040 ------- 0 0.0 1.0 29 119
+ 0.8872 0 1 tcp 1040 ------- 0 0.0 1.0 30 120
r 0.8872 1 0 ack 40 ------- 0 1.0 0.0 28 116
r 0.89184 0 1 tcp 1040 ------- 0 0.0 1.0 30 115
+ 0.89184 1 0 ack 40 ------- 0 1.0 0.0 30 121
- 0.89184 1 0 ack 40 ------- 0 1.0 0.0 30 121
r 0.89552 1 0 ack 40 ------- 0 1.0 0.0 28 117
- 0.89552 0 1 tcp 1040 ------- 0 0.0 1.0 30 120
r 0.90384 1 0 ack 40 ------- 0 1.0 0.0 29 118
+ 0.90384 0 1 tcp 1040 ------- 0 0.0 1.0 31 122
- 0.90384 0 1 tcp 1040 ------- 0 0.0 1.0 31 122
r 0.91216 1 0 ack 40 ------- 0 1.0 0.0 30 121
+ 0.91216 0 1 tcp 1040 ------- 0 0.0 1.0 32 123
- 0.91216 0 1 tcp 1040 ------- 0 0.0 1.0 32 123
r 0.91552 0 1 tcp 1040 ------- 0 0.0 1.0 29 119
+ 0.91552 1 0 ack 40 ------- 0 1.0 0.0 30 124
- 0.91552 1 0 ack 40 ------- 0 1.0 0.0 30 124
r 0.92384 0 1 tcp 1040 ------- 0 0.0 1.0 30 120
+ 0.92384 1 0 ack 40 ------- 0 1.0 0.0 30 125
- 0.92384 1 0 ack 40 ------- 0 1.0 0.0 30 125
r 0.93216 0 1 tcp 1040 ------- 0 0.0 1.0 31 122
+ 0.93216 1 0 ack 40 ------- 0 1.0 0.0 31 126
- 0.93216 1 0 ack 40 ------- 0 1.0 0.0 31 126
r 0.93584 1 0 ack 40 ------- 0 1.0 0.0 30 124
r 0.94048 0 1 tcp 1040 ------- 0 0.0 1.0 32 123
+ 0.94048 1 0 ack 40 ------- 0 1.0 0.0 32 127
- 0.94048 1 0 ack 40 ------- 0 1.0 0.0 32 127
r 0.94416 1 0 ack 40 ------- 0 1.0 0.0 30 125
+ 0.95216 0 1 tcp 1040 ------- 0 0.0 1.0 31 128
- 0.95216 0 1 tcp 1040 ------- 0 0.0 1.0 31 128
+ 0.95216 0 1 tcp 1040 ------- 0 0.0 1.0 32 129
r 0.95248 1 0 ack 40 ------- 0 1.0 0.0 31 126
+ 0.95248 0 1 tcp 1040 ------- 0 0.0 1.0 33 130
- 0.96048 0 1 tcp 1040 ------- 0 0.0 1.0 32 129
r 0.9608 1 0 ack 40 ------- 0 1.0 0.0 32 127
+ 0.9608 0 1 tcp 1040 ------- 0 0.0 1.0 34 131
- 0.9688 0 1 tcp 1040 ------- 0 0.0 1.0 33 130
- 0.97712 0 1 tcp 1040 ------- 0 0.0 1.0 34 131
r 0.98048 0 1 tcp 1040 ------- 0 0.0 1.0 31 128
+ 0.98048 1 0 ack 40 ------- 0 1.0 0.0 32 132
- 0.98048 1 0 ack 40 ------- 0 1.0 0.0 32 132
r 0.9888 0 1 tcp 1040 ------- 0 0.0 1.0 32 129
+ 0.9888 1 0 ack 40 ------- 0 1.0 0.0 32 133
- 0.9888 1 0 ack 40 ------- 0 1.0 0.0 32 133
r 0.99712 0 1 tcp 1040 ------- 0 0.0 1.0 33 130
+ 0.99712 1 0 ack 40 ------- 0 1.0 0.0 33 134
- 0.99712 1 0 ack 40 ------- 0 1.0 0.0 33 134
+ 1.0008 0 1 tcp 1040 ------- 0 0.0 1.0 33 135
- 1.0008 0 1 tcp 1040 ------- 0 0.0 1.0 33 135
+ 1.0008 0 1 tcp 1040 ------- 0 0.0 1.0 34 136
r 1.0008 1 0 ack 40 ------- 0 1.0 0.0 32 132
r 1.00544 0 1 tcp 1040 ------- 0 0.0 1.0 34 131
+ 1.00544 1 0 ack 40 ------- 0 1.0 0.0 34 137
- 1.00544 1 0 ack 40 ------- 0 1.0 0.0 34 137
r 1.00912 1 0 ack 40 ------- 0 1.0 0.0 32 133
- 1.00912 0 1 tcp 1040 ------- 0 0.0 1.0 34 136
r 1.01744 1 0 ack 40 ------- 0 1.0 0.0 33 134
+ 1.01744 0 1 tcp 1040 ------- 0 0.0 1.0 35 138
- 1.01744 0 1 tcp 1040 ------- 0 0.0 1.0 35 138
r 1.02576 1 0 ack 40 ------- 0 1.0 0.0 34 137
+ 1.02576 0 1 tcp 1040 ------- 0 0.0 1.0 36 139
- 1.02576 0 1 tcp 1040 ------- 0 0.0 1.0 36 139
r 1.02912 0 1 tcp 1040 ------- 0 0.0 1.0 33 135
+ 1.02912 1 0 ack 40 ------- 0 1.0 0.0 34 140
- 1.02912 1 0 ack 40 ------- 0 1.0 0.0 34 140
r 1.03744 0 1 tcp 1040 ------- 0 0.0 1.0 34 136
+ 1.03744 1 0 ack 40 ------- 0 1.0 0.0 34 141
- 1.03744 1 0 ack 40 ------- 0 1.0 0.0 34 141
r 1.04576 0 1 tcp 1040 ------- 0 0.0 1.0 35 138
+ 1.04576 1 0 ack 40 ------- 0 1.0 0.0 35 142
- 1.04576 1 0 ack 40 ------- 0 1.0 0.0 35 142
r 1.04944 1 0 ack 40 ------- 0 1.0 0.0 34 140
r 1.05408 0 1 tcp 1040 ------- 0 0.0 1.0 36 139
+ 1.05408 1 0 ack 40 ------- 0 1.0 0.0 36 143
- 1.05408 1 0 ack 40 ------- 0 1.0 0.0 36 143
r 1.05776 1 0 ack 40 ------- 0 1.0 0.0 34 141
+ 1.06576 0 1 tcp 1040 ------- 0 0.0 1.0 35 144
- 1.06576 0 1 tcp 1040 ------- 0 0.0 1.0 35 144
+ 1.06576 0 1 tcp 1040 ------- 0 0.0 1.0 36 145
r 1.06608 1 0 ack 40 ------- 0 1.0 0.0 35 142
+ 1.06608 0 1 tcp 1040 ------- 0 0.0 1.0 37 146
- 1.07408 0 1 tcp 1040 ------- 0 0.0 1.0 36 145
r 1.0744 1 0 ack 40 ------- 0 1.0 0.0 36 143
+ 1.0744 0 1 tcp 1040 ------- 0 0.0 1.0 38 147
- 1.0824 0 1 tcp 1040 ------- 0 0.0 1.0 37 146
- 1.09072 0 1 tcp 1040 ------- 0 0.0 1.0 38 147
r 1.09408 0 1 tcp 1040 ------- 0 0.0 1.0 35 144
+ 1.09408 1 0 ack 40 ------- 0 1.0 0.0 36 148
- 1.09408 1 0 ack 40 ------- 0 1.0 0.0 36 148
r 1.1024 0 1 tcp 1040 ------- 0 0.0 1.0 36 145
+ 1.1024 1 0 ack 40 ------- 0 1.0 0.0 36 149
- 1.1024 1 0 ack 40 ------- 0 1.0 0.0 36 149
r 1.11072 0 1 tcp 1040 ------- 0 0.0 1.0 37 146
+ 1.11072 1 0 ack 40 ------- 0 1.0 0.0 37 150
- 1.11072 1 0 ack 40 ------- 0 1.0 0.0 37 150
r 1.1144 1 0 ack 40 ------- 0 1.0 0.0 36 148
+ 1.1144 0 1 tcp 1040 ------- 0 0.0 1.0 37 151
- 1.1144 0 1 tcp 1040 ------- 0 0.0 1.0 37 151
+ 1.1144 0 1 tcp 1040 ------- 0 0.0 1.0 38 152
r 1.11904 0 1 tcp 1040 ------- 0 0.0 1.0 38 147
+ 1.11904 1 0 ack 40 ------- 0 1.0 0.0 38 153
- 1.11904 1 0 ack 40 ------- 0 1.0 0.0 38 153
r 1.12272 1 0 ack 40 ------- 0 1.0 0.0 36 149
- 1.12272 0 1 tcp 1040 ------- 0 0.0 1.0 38 152
r 1.13104 1 0 ack 40 ------- 0 1.0 0.0 37 150
+ 1.13104 0 1 tcp 1040 ------- 0 0.0 1.0 39 154
- 1.13104 0 1 tcp 1040 ------- 0 0.0 1.0 39 154
r 1.13936 1 0 ack 40 ------- 0 1.0 0.0 38 153
+ 1.13936 0 1 tcp 1040 ------- 0 0.0 1.0 40 155
- 1.13936 0 1 tcp 1040 ------- 0 0.0 1.0 40 155
r 1.14272 0 1 tcp 1040 ------- 0 0.0 1.0 37 151
+ 1.14272 1 0 ack 40 ------- 0 1.0 0.0 38 156
- 1.14272 1 0 ack 40 ------- 0 1.0 0.0 38 156
r 1.15104 0 1 tcp 1040 ------- 0 0.0 1.0 38 152
+ 1.15104 1 0 ack 40 ------- 0 1.0 0.0 38 157
- 1.15104 1 0 ack 40 ------- 0 1.0 0.0 38 157
r 1.15936 0 1 tcp 1040 ------- 0 0.0 1.0 39 154
+ 1.15936 1 0 ack 40 ------- 0 1.0 0.0 39 158
- 1.15936 1 0 ack 40 ------- 0 1.0 0.0 39 158
r 1.16304 1 0 ack 40 ------- 0 1.0 0.0 38 156
r 1.16768 0 1 tcp 1040 ------- 0 0.0 1.0 40 155
+ 1.16768 1 0 ack 40 ------- 0 1.0 0.0 40 159
- 1.16768 1 0 ack 40 ------- 0 1.0 0.0 40 159
r 1.17136 1 0 ack 40 ------- 0 1.0 0.0 38 157
+ 1.17936 0 1 tcp 1040 ------- 0 0.0 1.0 39 160
- 1.17936 0 1 tcp 1040 ------- 0 0.0 1.0 39 160
+ 1.17936 0 1 tcp 1040 ------- 0 0.0 1.0 40 161
r 1.17968 1 0 ack 40 ------- 0 1.0 0.0 39 158
+ 1.17968 0 1 tcp 1040 ------- 0 0.0 1.0 41 162
- 1.18768 0 1 tcp 1040 ------- 0 0.0 1.0 40 161
r 1.188 1 0 ack 40 ------- 0 1.0 0.0 40 159
+ 1.188 0 1 tcp 1040 ------- 0 0.0 1.0 42 163
- 1.196 0 1 tcp 1040 ------- 0 0.0 1.0 41 162
